# vtk DataFile Version 2.0
3D Data
ASCII
DATASET UNSTRUCTURED_GRID
POINTS 4466 double 
-322951 1.56583e+06 -2547.97
-313165 1.56583e+06 -2602.17
-303379 1.56583e+06 -2637.32
-293592 1.56583e+06 -2686.47
-283806 1.56583e+06 -2764.9
-274019 1.56583e+06 -2838.41
-264233 1.56583e+06 -2850.64
-254447 1.56583e+06 -2871.57
-244660 1.56583e+06 -2881.6
-234874 1.56583e+06 -2891.49
-225087 1.56583e+06 -2949.29
-215301 1.56583e+06 -2972.05
-205515 1.56583e+06 -2984.69
-195728 1.56583e+06 -3015.27
-185942 1.56583e+06 -3019.06
-176155 1.56583e+06 -3026.33
-166369 1.56583e+06 -3060.46
-156583 1.56583e+06 -3072.83
-146796 1.56583e+06 -3086.91
-137010 1.56583e+06 -3086.35
-127223 1.56583e+06 -3110.01
-117437 1.56583e+06 -3119.61
-107650 1.56583e+06 -3128.71
-97864.1 1.56583e+06 -3150.03
-88077.7 1.56583e+06 -3164.17
-78291.3 1.56583e+06 -3178.78
-68504.9 1.56583e+06 -3189.48
-58718.5 1.56583e+06 -3199.6
-48932 1.56583e+06 -3223.8
-39145.6 1.56583e+06 -3244.39
-29359.2 1.56583e+06 -3275.1
-19572.8 1.56583e+06 -3296.58
-9786.41 1.56583e+06 -3309.08
0 1.56583e+06 -3320.83
9786.41 1.56583e+06 -3331.36
19572.8 1.56583e+06 -3354.22
29359.2 1.56583e+06 -3376.37
39145.6 1.56583e+06 -3393.03
48932 1.56583e+06 -3402.63
58718.5 1.56583e+06 -3419.11
68504.9 1.56583e+06 -3442.84
78291.3 1.56583e+06 -3456.65
88077.7 1.56583e+06 -3472.16
97864.1 1.56583e+06 -3489.27
107650 1.56583e+06 -3510.78
117437 1.56583e+06 -3536.9
127223 1.56583e+06 -3555.05
137010 1.56583e+06 -3567.02
146796 1.56583e+06 -3580.42
156583 1.56583e+06 -3592.57
166369 1.56583e+06 -3618.56
176155 1.56583e+06 -3637.12
185942 1.56583e+06 -3655.65
195728 1.56583e+06 -3666.73
205515 1.56583e+06 -3675.35
215301 1.56583e+06 -3690.13
225087 1.56583e+06 -3704.1
234874 1.56583e+06 -3722.66
244660 1.56583e+06 -3740.58
254447 1.56583e+06 -3760.52
264233 1.56583e+06 -3775.29
274019 1.56583e+06 -3783.85
283806 1.56583e+06 -3804.56
293592 1.56583e+06 -3814.83
303379 1.56583e+06 -3828.03
313165 1.56583e+06 -3842.02
322951 1.56583e+06 -3845.95
332738 1.56583e+06 -3864.74
342524 1.56583e+06 -3877.4
352311 1.56583e+06 -3883.57
362097 1.56583e+06 -3893.29
371884 1.56583e+06 -3907.73
381670 1.56583e+06 -3912.61
391456 1.56583e+06 -3924.46
401243 1.56583e+06 -3940.49
411029 1.56583e+06 -3948.83
420816 1.56583e+06 -3952.82
-322951 1.57561e+06 -2561.92
-313165 1.57561e+06 -2623.46
-303379 1.57561e+06 -2652.71
-293592 1.57561e+06 -2707.28
-283806 1.57561e+06 -2807.85
-274019 1.57561e+06 -2864.78
-264233 1.57561e+06 -2884.22
-254447 1.57561e+06 -2871
-244660 1.57561e+06 -2887.87
-234874 1.57561e+06 -2936.19
-225087 1.57561e+06 -2979.01
-215301 1.57561e+06 -2990.74
-205515 1.57561e+06 -2985.5
-195728 1.57561e+06 -3035.11
-185942 1.57561e+06 -3028.19
-176155 1.57561e+06 -3044.84
-166369 1.57561e+06 -3071.47
-156583 1.57561e+06 -3083
-146796 1.57561e+06 -3095.08
-137010 1.57561e+06 -3108.42
-127223 1.57561e+06 -3123.45
-117437 1.57561e+06 -3145.19
-107650 1.57561e+06 -3156.15
-97864.1 1.57561e+06 -3167.34
-88077.7 1.57561e+06 -3173.84
-78291.3 1.57561e+06 -3187.35
-68504.9 1.57561e+06 -3199.21
-58718.5 1.57561e+06 -3216.35
-48932 1.57561e+06 -3227.27
-39145.6 1.57561e+06 -3245.77
-29359.2 1.57561e+06 -3279.92
-19572.8 1.57561e+06 -3303.04
-9786.41 1.57561e+06 -3322.04
0 1.57561e+06 -3332.39
9786.41 1.57561e+06 -3350.18
19572.8 1.57561e+06 -3366.15
29359.2 1.57561e+06 -3383.69
39145.6 1.57561e+06 -3397.38
48932 1.57561e+06 -3410.52
58718.5 1.57561e+06 -3426.44
68504.9 1.57561e+06 -3452.51
78291.3 1.57561e+06 -3469.63
88077.7 1.57561e+06 -3484.77
97864.1 1.57561e+06 -3497.25
107650 1.57561e+06 -3519.47
117437 1.57561e+06 -3538.87
127223 1.57561e+06 -3544.31
137010 1.57561e+06 -3576.64
146796 1.57561e+06 -3589.92
156583 1.57561e+06 -3605.78
166369 1.57561e+06 -3616.51
176155 1.57561e+06 -3634.62
185942 1.57561e+06 -3658.46
195728 1.57561e+06 -3666.79
205515 1.57561e+06 -3686.74
215301 1.57561e+06 -3701.3
225087 1.57561e+06 -3711.87
234874 1.57561e+06 -3731.49
244660 1.57561e+06 -3746.19
254447 1.57561e+06 -3759.45
264233 1.57561e+06 -3777.85
274019 1.57561e+06 -3787.65
283806 1.57561e+06 -3805.73
293592 1.57561e+06 -3822.95
303379 1.57561e+06 -3827.76
313165 1.57561e+06 -3844.33
322951 1.57561e+06 -3852.51
332738 1.57561e+06 -3868.06
342524 1.57561e+06 -3887.05
352311 1.57561e+06 -3888.88
362097 1.57561e+06 -3897.29
371884 1.57561e+06 -3909.61
381670 1.57561e+06 -3917.67
391456 1.57561e+06 -3927.28
401243 1.57561e+06 -3938.24
411029 1.57561e+06 -3953
420816 1.57561e+06 -3954
-322951 1.5854e+06 -2672.8
-313165 1.5854e+06 -2658.26
-303379 1.5854e+06 -2703.45
-293592 1.5854e+06 -2764.83
-283806 1.5854e+06 -2847.27
-274019 1.5854e+06 -2896.77
-264233 1.5854e+06 -2894.56
-254447 1.5854e+06 -2883.57
-244660 1.5854e+06 -2920.03
-234874 1.5854e+06 -2969.8
-225087 1.5854e+06 -3004.97
-215301 1.5854e+06 -3010.1
-205515 1.5854e+06 -3019.94
-195728 1.5854e+06 -3058.61
-185942 1.5854e+06 -3063.28
-176155 1.5854e+06 -3068.69
-166369 1.5854e+06 -3094.81
-156583 1.5854e+06 -3104.45
-146796 1.5854e+06 -3126.8
-137010 1.5854e+06 -3140.17
-127223 1.5854e+06 -3146.78
-117437 1.5854e+06 -3153.07
-107650 1.5854e+06 -3170.16
-97864.1 1.5854e+06 -3177.55
-88077.7 1.5854e+06 -3192.64
-78291.3 1.5854e+06 -3201.84
-68504.9 1.5854e+06 -3216.69
-58718.5 1.5854e+06 -3226.56
-48932 1.5854e+06 -3236.07
-39145.6 1.5854e+06 -3260.59
-29359.2 1.5854e+06 -3281.96
-19572.8 1.5854e+06 -3312.65
-9786.41 1.5854e+06 -3333.22
0 1.5854e+06 -3333.8
9786.41 1.5854e+06 -3361.18
19572.8 1.5854e+06 -3369.12
29359.2 1.5854e+06 -3392.27
39145.6 1.5854e+06 -3407.94
48932 1.5854e+06 -3422.26
58718.5 1.5854e+06 -3432.55
68504.9 1.5854e+06 -3456.01
78291.3 1.5854e+06 -3478.29
88077.7 1.5854e+06 -3488.16
97864.1 1.5854e+06 -3498.38
107650 1.5854e+06 -3519.3
117437 1.5854e+06 -3531.44
127223 1.5854e+06 -3552.83
137010 1.5854e+06 -3584.6
146796 1.5854e+06 -3597.39
156583 1.5854e+06 -3614.98
166369 1.5854e+06 -3617.53
176155 1.5854e+06 -3643.47
185942 1.5854e+06 -3667.94
195728 1.5854e+06 -3672.91
205515 1.5854e+06 -3691.91
215301 1.5854e+06 -3696.3
225087 1.5854e+06 -3715.17
234874 1.5854e+06 -3729.75
244660 1.5854e+06 -3752.85
254447 1.5854e+06 -3761.84
264233 1.5854e+06 -3778.61
274019 1.5854e+06 -3803.03
283806 1.5854e+06 -3811.61
293592 1.5854e+06 -3827.59
303379 1.5854e+06 -3835.63
313165 1.5854e+06 -3846.17
322951 1.5854e+06 -3857.92
332738 1.5854e+06 -3872.74
342524 1.5854e+06 -3883.65
352311 1.5854e+06 -3895.71
362097 1.5854e+06 -3899.5
371884 1.5854e+06 -3911.88
381670 1.5854e+06 -3922.07
391456 1.5854e+06 -3929.46
401243 1.5854e+06 -3945
411029 1.5854e+06 -3951.02
420816 1.5854e+06 -3954.82
-322951 1.59518e+06 -2694.59
-313165 1.59518e+06 -2714.27
-303379 1.59518e+06 -2792.17
-293592 1.59518e+06 -2835.82
-283806 1.59518e+06 -2923.23
-274019 1.59518e+06 -2932.61
-264233 1.59518e+06 -2909.92
-254447 1.59518e+06 -2927.93
-244660 1.59518e+06 -2956.78
-234874 1.59518e+06 -3019.4
-225087 1.59518e+06 -3024.82
-215301 1.59518e+06 -3047.25
-205515 1.59518e+06 -3055.19
-195728 1.59518e+06 -3083.64
-185942 1.59518e+06 -3070.55
-176155 1.59518e+06 -3106.03
-166369 1.59518e+06 -3109.85
-156583 1.59518e+06 -3109.95
-146796 1.59518e+06 -3124.37
-137010 1.59518e+06 -3146.97
-127223 1.59518e+06 -3161.03
-117437 1.59518e+06 -3177.05
-107650 1.59518e+06 -3189.07
-97864.1 1.59518e+06 -3197.66
-88077.7 1.59518e+06 -3205.25
-78291.3 1.59518e+06 -3216.13
-68504.9 1.59518e+06 -3224.37
-58718.5 1.59518e+06 -3232.78
-48932 1.59518e+06 -3238.59
-39145.6 1.59518e+06 -3270.44
-29359.2 1.59518e+06 -3295.47
-19572.8 1.59518e+06 -3324.47
-9786.41 1.59518e+06 -3339.17
0 1.59518e+06 -3349
9786.41 1.59518e+06 -3365.76
19572.8 1.59518e+06 -3380.15
29359.2 1.59518e+06 -3395.38
39145.6 1.59518e+06 -3412.63
48932 1.59518e+06 -3426.69
58718.5 1.59518e+06 -3440.72
68504.9 1.59518e+06 -3460.02
78291.3 1.59518e+06 -3483.24
88077.7 1.59518e+06 -3491.26
97864.1 1.59518e+06 -3502.02
107650 1.59518e+06 -3524.3
117437 1.59518e+06 -3540.81
127223 1.59518e+06 -3559.44
137010 1.59518e+06 -3585.4
146796 1.59518e+06 -3609.98
156583 1.59518e+06 -3622.58
166369 1.59518e+06 -3625.67
176155 1.59518e+06 -3638.5
185942 1.59518e+06 -3665.76
195728 1.59518e+06 -3682.55
205515 1.59518e+06 -3699.51
215301 1.59518e+06 -3705.36
225087 1.59518e+06 -3715.29
234874 1.59518e+06 -3735.81
244660 1.59518e+06 -3756.98
254447 1.59518e+06 -3769.55
264233 1.59518e+06 -3781.65
274019 1.59518e+06 -3800.02
283806 1.59518e+06 -3818.59
293592 1.59518e+06 -3824.48
303379 1.59518e+06 -3839.18
313165 1.59518e+06 -3851.17
322951 1.59518e+06 -3862.14
332738 1.59518e+06 -3871.32
342524 1.59518e+06 -3884.52
352311 1.59518e+06 -3896.56
362097 1.59518e+06 -3904.26
371884 1.59518e+06 -3914.07
381670 1.59518e+06 -3924.22
391456 1.59518e+06 -3934.64
401243 1.59518e+06 -3942
411029 1.59518e+06 -3944.82
420816 1.59518e+06 -3952.82
-322951 1.60497e+06 -2621.23
-313165 1.60497e+06 -2755.22
-303379 1.60497e+06 -2897.66
-293592 1.60497e+06 -2968.33
-283806 1.60497e+06 -2976.52
-274019 1.60497e+06 -2950.94
-264233 1.60497e+06 -2948.88
-254447 1.60497e+06 -2966.42
-244660 1.60497e+06 -3010.7
-234874 1.60497e+06 -3060.52
-225087 1.60497e+06 -3071.94
-215301 1.60497e+06 -3070.61
-205515 1.60497e+06 -3081.38
-195728 1.60497e+06 -3104.73
-185942 1.60497e+06 -3098.88
-176155 1.60497e+06 -3115.47
-166369 1.60497e+06 -3131.31
-156583 1.60497e+06 -3143.32
-146796 1.60497e+06 -3153.51
-137010 1.60497e+06 -3173.86
-127223 1.60497e+06 -3183.91
-117437 1.60497e+06 -3185.07
-107650 1.60497e+06 -3191.34
-97864.1 1.60497e+06 -3200.13
-88077.7 1.60497e+06 -3205.89
-78291.3 1.60497e+06 -3220.71
-68504.9 1.60497e+06 -3234.44
-58718.5 1.60497e+06 -3247.22
-48932 1.60497e+06 -3268.08
-39145.6 1.60497e+06 -3292.48
-29359.2 1.60497e+06 -3313.6
-19572.8 1.60497e+06 -3335.24
-9786.41 1.60497e+06 -3343
0 1.60497e+06 -3357.97
9786.41 1.60497e+06 -3376.54
19572.8 1.60497e+06 -3389.57
29359.2 1.60497e+06 -3402.34
39145.6 1.60497e+06 -3417.15
48932 1.60497e+06 -3428.97
58718.5 1.60497e+06 -3449.44
68504.9 1.60497e+06 -3463.51
78291.3 1.60497e+06 -3484.57
[...]
POINT_DATA 4466
SCALARS grav_accel double
LOOKUP_TABLE default
0.000101377 0.000117026 0.00016945 0.000207977 0.000186724 0.000163387 0.00015154 0.00014801 0.000143175 0.000140978 0.000154096 0.000170995 0.000182825 0.000202951 0.000201524 0.000164669 0.000128869 0.000110462 8.42676e-05 6.22557e-05 3.8921e-05 -9.52872e-06 -7.64059e-06 1.96573e-05 2.2038e-05 2.63712e-06 5.03093e-08 3.44956e-06 -8.78965e-06 -4.15992e-05 -6.33977e-05 -8.67388e-05 -9.79414e-05 -8.16591e-05 -5.40223e-05 -3.37054e-05 -3.60317e-05 -3.80224e-05 -5.75888e-05 -0.000118847 -0.000166111 -0.00022474 -0.000288981 -0.000356672 -0.000424045 -0.000457495 -0.000442867 -0.000378413 -0.000323739 -0.000287267 -0.000292869 -0.00025121 -0.000207119 -0.000218128 -0.000280745 -0.000293253 -0.000232832 -0.000170757 -0.000163111 -0.000106876 -8.22095e-05 -8.91383e-05 -9.91141e-05 -0.000212431 -0.000242789 -0.000184548 -0.000115485 -9.96808e-05 -8.22258e-05 -8.07488e-05 -6.20144e-05 -8.78983e-05 -0.000150755 -0.000217353 -0.00020016 -0.000314416 -0.000233402 5.10759e-05 7.53003e-05 0.000131417 0.000159148 0.000155252 0.000167022 0.000171295 0.000168941 0.000146938 0.000133287 0.000153181 0.000182874 0.000195899 0.000211892 0.000213813 0.000177851 0.000143236 0.000124308 8.88647e-05 5.68042e-05 3.66284e-05 -1.14309e-05 -3.5622e-05 -4.48516e-05 -5.59745e-05 -6.13183e-05 -2.96352e-05 -9.06259e-06 -1.40524e-05 -3.17445e-05 -4.58552e-05 -6.42755e-05 -7.43628e-05 -6.13775e-05 -4.63638e-05 -3.52664e-05 -2.28323e-05 1.17418e-06 -1.18256e-05 -8.97068e-05 -0.000148927 -0.000189739 -0.000249141 -0.000327361 -0.000412982 -0.000483459 -0.000487569 -0.00041548 -0.000337788 -0.000290526 -0.000315612 -0.000290024 -0.000236676 -0.000226989 -0.000257061 -0.000282552 -0.000251888 -0.000204444 -0.000179343 -0.000117047 -9.55837e-05 -0.000107525 -9.79531e-05 -0.000175854 -0.000221687 -0.000199427 -0.00015193 -0.000132712 -8.63548e-05 -2.57146e-05 1.65896e-05 -3.5475e-05 -0.000135765 -0.000188034 -0.000136104 -0.000261113 -0.000216306 8.39432e-06 7.26837e-05 0.0001012 0.000111959 0.000131103 0.000164627 0.000174195 0.000169938 0.000134327 0.000119991 0.000144559 0.000186798 0.000209484 0.000204978 0.00019237 0.000165708 0.0001483 0.000129499 9.54723e-05 7.47859e-05 7.63389e-05 5.45311e-05 -2.06891e-06 -6.997e-05 -0.00011876 -0.000108617 -3.36004e-05 -1.32512e-05 -2.73553e-05 -3.23121e-05 -4.48236e-05 -6.56174e-05 -7.28077e-05 -6.2758e-05 -4.90886e-05 -3.9595e-05 -2.0646e-05 3.35333e-06 -6.22333e-06 -8.28835e-05 -0.000141564 -0.00015467 -0.000208303 -0.000306561 -0.000413733 -0.000505347 -0.00052245 -0.000472955 -0.000391152 -0.000339722 -0.000345573 -0.000328785 -0.000287125 -0.000246906 -0.000222482 -0.000248965 -0.000253095 -0.000236224 -0.000206742 -0.000141285 -0.000117353 -0.000126522 -0.000103556 -0.000150006 -0.000209763 -0.000222137 -0.000194036 -0.000167157 -9.58993e-05 4.60058e-06 7.46575e-05 3.32667e-05 -7.66799e-05 -0.000128464 -6.75137e-05 -0.000177209 -0.000147387 -1.41605e-05 7.9506e-05 8.44e-05 8.66931e-05 0.000108492 0.000140688 0.00014122 0.000134822 0.000105836 9.48231e-05 0.000117392 0.00016368 0.000205376 0.000199516 0.00017712 0.000162236 0.000151797 0.000120113 8.71617e-05 8.03471e-05 0.00010421 0.00010981 3.28081e-05 -6.72204e-05 -0.000133178 -0.00010736 -1.15011e-05 -5.84277e-06 -4.07895e-05 -4.56833e-05 -5.43207e-05 -6.89822e-05 -6.45893e-05 -4.97105e-05 -4.08517e-05 -3.64516e-05 -2.52881e-05 -6.92857e-06 -1.37951e-05 -7.30371e-05 -0.000120412 -0.000107115 -0.000158322 -0.000272004 -0.000404044 -0.000497166 -0.000544416 -0.000524164 -0.000454596 -0.000398626 -0.000371862 -0.000351608 -0.000313069 -0.000247602 -0.00020164 -0.000229729 -0.000247651 -0.000243558 -0.00021844 -0.000162211 -0.000127783 -0.00012024 -0.000103135 -0.000143382 -0.000207837 -0.000233508 -0.00021358 -0.000185408 -0.00011427 -1.50514e-05 6.17092e-05 5.66526e-05 -2.55959e-05 -7.97083e-05 -4.136e-05 -0.000131838 -7.94076e-05 -3.01504e-05 3.92524e-05 3.88271e-05 6.26528e-05 9.81092e-05 0.000119649 0.000123468 0.000127033 0.000102154 7.82689e-05 0.000101597 0.000156731 0.000201944 0.000191807 0.000160534 0.0001474 0.000149153 0.000139904 0.000125435 0.000110266 0.000117399 0.00010611 1.22987e-05 -7.55461e-05 -0.000112199 -5.70997e-05 1.52942e-05 9.33963e-07 -3.8074e-05 -5.43267e-05 -5.93492e-05 -5.50332e-05 -3.95754e-05 -2.23617e-05 -2.60864e-05 -2.97851e-05 -2.634e-05 -1.36849e-05 -1.25949e-05 -4.24682e-05 -6.95885e-05 -4.7151e-05 -0.000103608 -0.000215105 -0.000341493 -0.000460427 -0.000537367 -0.000555379 -0.000499957 -0.000425057 -0.000377587 -0.000348738 -0.000292906 -0.000214414 -0.000185915 -0.00023081 -0.000235203 -0.000215389 -0.00020007 -0.000157495 -0.000120522 -0.000107519 -0.00010405 -0.000137724 -0.000193953 -0.000220838 -0.000205232 -0.00016713 -0.000100454 -2.72093e-05 3.12148e-05 4.65733e-05 6.60592e-06 -2.92014e-05 -2.95744e-05 -0.000108298 -4.08634e-05 -8.2728e-05 -3.99072e-05 -1.83218e-05 2.77386e-05 7.58196e-05 9.56635e-05 0.000105278 0.000122947 9.93264e-05 6.26282e-05 8.84403e-05 0.000148717 0.000177026 0.00014713 0.000108475 9.77624e-05 0.000126217 0.000176788 0.000195196 0.00015923 0.000111159 3.75643e-05 -4.93577e-05 -7.52581e-05 -6.55259e-05 6.44824e-06 3.92208e-05 -1.0043e-06 -3.30173e-05 -5.01441e-05 -4.93777e-05 -2.94624e-05 -3.25077e-06 1.00345e-05 -2.29671e-06 -1.27435e-05 -8.8041e-06 7.28634e-06 2.43361e-05 1.22038e-05 -1.73794e-05 -7.80377e-06 -7.18514e-05 -0.000157276 -0.000256935 -0.000389177 -0.000498767 -0.00053155 -0.00049442 -0.000416608 -0.000360479 -0.000334165 -0.000271092 -0.00017698 -0.000149287 -0.000210823 -0.000195737 -0.000160577 -0.000167527 -0.000133601 -0.000109165 -0.000108372 -0.000114145 -0.000129639 -0.000163887 -0.000185887 -0.000176705 -0.00011942 -5.04251e-05 -4.279e-07 3.35248e-05 3.6613e-05 2.65568e-05 2.97359e-05 1.55961e-05 -6.94638e-05 -9.6129e-06 -0.000156826 -0.000105397 -6.22306e-05 -3.71383e-05 1.11761e-06 3.33505e-05 4.21396e-05 7.04713e-05 5.6134e-05 2.32171e-05 4.41465e-05 8.36434e-05 8.67065e-05 5.27206e-05 2.49674e-05 2.88888e-05 7.10105e-05 0.000159826 0.000194006 0.000163283 8.10536e-05 -5.18547e-05 -7.85494e-05 -1.35928e-05 2.99703e-05 5.86542e-05 4.79544e-05 -6.19392e-06 -2.7713e-05 -3.26118e-05 -1.82693e-05 6.5907e-06 3.32434e-05 4.81566e-05 3.19474e-05 2.01348e-05 3.25754e-05 6.19858e-05 9.17935e-05 7.20127e-05 2.11361e-05 -7.28822e-06 -8.19274e-05 -0.000134392 -0.000205883 -0.000327674 -0.000429615 -0.000469835 -0.000453943 -0.000404194 -0.000350449 -0.000324099 -0.000265881 -0.000152623 -8.69077e-05 -0.000132937 -0.000121489 -9.877e-05 -0.000126119 -0.0001028 -9.71467e-05 -9.8304e-05 -0.000105365 -0.000112648 -0.00012208 -0.000131958 -0.000136628 -7.46642e-05 -3.60468e-06 4.16314e-05 6.01591e-05 3.38076e-05 3.43314e-05 8.04851e-05 8.86636e-05 6.36278e-06 3.5654e-05 -0.000185104 -0.000132183 -0.000107319 -0.000116163 -7.81295e-05 -3.32104e-05 -1.5853e-05 1.53679e-05 4.04495e-06 -1.98887e-05 -2.06052e-05 -2.62286e-05 -4.60089e-05 -6.66202e-05 -8.20875e-05 -6.50706e-05 -2.23634e-05 6.54268e-05 0.000107309 0.000114807 6.50117e-05 -4.7702e-05 3.202e-06 0.00012137 0.000166058 0.000116959 4.97922e-05 8.74979e-07 -5.58617e-06 6.48285e-06 3.67414e-05 5.86716e-05 6.84621e-05 8.11399e-05 6.86492e-05 6.43503e-05 7.88676e-05 0.000114147 0.000133086 9.78366e-05 4.76516e-05 -5.90597e-06 -9.17662e-05 -0.000141092 -0.000197882 -0.000292401 -0.000364885 -0.000412389 -0.000422898 -0.00040289 -0.000366147 -0.000316925 -0.000242116 -0.000123808 -3.35142e-05 -4.18357e-05 -5.08459e-05 -5.65378e-05 -7.41825e-05 -6.60643e-05 -6.37911e-05 -4.90371e-05 -4.80478e-05 -5.98278e-05 -6.01402e-05 -6.47231e-05 -8.56236e-05 -4.39573e-05 2.46327e-05 7.52541e-05 8.51684e-05 4.54454e-05 5.62487e-05 0.000139925 0.000167659 0.000103267 0.000105114 -0.000197876 -0.00016443 -0.000125698 -0.000136329 -0.000105206 -5.3937e-05 -2.66546e-05 -7.48896e-06 -1.00433e-05 -2.30113e-05 -5.81596e-05 -0.000112773 -0.000150077 -0.000168738 -0.000184403 -0.000166364 -0.000125175 -5.72926e-05 3.04083e-06 5.69793e-05 7.13517e-05 5.54807e-05 0.000158391 0.000261133 0.000272834 0.000200516 0.000103511 4.05409e-05 2.86425e-05 6.12862e-05 0.000117912 0.000132129 0.000117017 0.000118562 0.00011049 0.000107946 0.000120392 0.00015365 0.000142829 9.94453e-05 5.90891e-05 1.8352e-05 -5.54234e-05 -0.000119159 -0.000191193 -0.000265169 -0.000311826 -0.000358766 -0.000388242 -0.000392534 -0.000371954 -0.000304622 -0.000211833 -9.94487e-05 -1.45086e-05 6.60134e-06 -1.27692e-05 -3.75982e-05 -3.41061e-05 -2.90879e-05 -1.22805e-05 7.76343e-06 1.35318e-05 1.85039e-05 1.24675e-05 -5.54944e-06 -2.96406e-05 -3.7639e-06 5.75377e-05 0.000107538 0.000114078 8.77713e-05 0.000117945 0.000227402 0.00026028 0.000221508 0.000207346 -0.000208846 -0.000211302 -0.00013364 -0.000134018 -0.000134865 -8.01978e-05 -4.07083e-05 -2.20314e-05 -2.52535e-06 4.25217e-06 -3.98846e-05 -0.000114312 -0.000172391 -0.000204914 -0.00022547 -0.000220507 -0.000197594 -0.000158845 -7.43399e-05 1.22372e-05 6.99307e-05 0.00014384 0.00026867 0.000322147 0.000292055 0.000277592 0.000225919 0.00014327 9.2112e-05 0.000129327 0.000212899 0.000216433 0.000182653 0.000167772 0.000160934 0.000150912 0.000151692 0.000165548 0.000143803 0.000111594 7.30806e-05 4.35034e-05 -7.77544e-06 -6.34152e-05 -0.000154158 -0.00022221 -0.000257276 -0.000297492 -0.00033397 -0.000348521 -0.000342958 -0.000286405 -0.000200012 -8.71308e-05 -7.16353e-06 2.19883e-05 8.79786e-06 -1.46326e-05 -1.26643e-05 3.97169e-06 3.03911e-05 3.70935e-05 3.35225e-05 8.0059e-05 6.76691e-05 3.22632e-05 1.75982e-05 5.45398e-05 0.000112378 0.000152175 0.000161892 0.000161256 0.000195558 0.000294529 0.000337049 0.000335791 0.000316628 -0.000175628 -0.000223476 -0.000171132 -0.00016538 -0.000188609 -0.000132892 -7.67291e-05 -5.27971e-05 -2.92512e-05 1.29227e-05 -2.35455e-07 -5.70057e-05 -0.000118153 -0.000178976 -0.000233848 -0.00025364 -0.000249248 -0.000215932 -9.38944e-05 2.76251e-06 7.47096e-05 0.000183859 0.000305827 0.000337996 0.000280262 0.000301515 0.000316957 0.000273387 0.000204813 0.000236811 0.000303577 0.00027329 0.000236682 0.000223252 0.000218552 0.000201389 0.000178491 0.000148435 0.000140879 0.000141341 0.000117322 6.90709e-05 2.31339e-05 -1.18386e-05 -8.03481e-05 -0.000142432 -0.000178587 -0.000209424 -0.00024323 -0.000263693 -0.000278711 -0.000248717 -0.000180398 -6.46771e-05 9.14324e-06 2.62393e-05 3.25319e-05 3.17101e-05 1.80725e-05 3.75096e-05 6.02334e-05 5.59734e-05 5.01784e-05 0.000124112 0.000121736 7.96286e-05 6.89438e-05 0.000122937 0.000186363 0.000217797 0.000221643 0.000230983 0.000255809 0.000315744 0.000369426 0.000412859 0.000394664 -9.34154e-05 -0.000191105 -0.000221131 -0.000209466 -0.000232696 -0.000165217 -9.32743e-05 -0.00010374 -0.000120292 -1.6056e-05 1.69809e-05 -1.52944e-05 -3.89002e-05 -0.000118022 -0.000214478 -0.000238492 -0.000231987 -0.000198566 -6.88143e-05 3.76369e-05 0.000121346 0.000214539 0.000296963 0.000331733 0.000300492 0.000299154 0.000318368 0.000328579 0.000301747 0.00034651 0.000341851 0.000278258 0.000263106 0.000279494 0.000287344 0.000280287 0.000246416 0.000150176 0.00015809 0.000185718 0.00017294 9.48607e-05 6.31638e-05 5.54842e-05 3.55139e-05 -4.61946e-05 -9.19484e-05 -0.000110685 -0.000136768 -0.000160411 -0.000188132 -0.000178488 -0.000132717 -3.72227e-05 6.57547e-06 1.94874e-05 5.13059e-05 7.26675e-05 5.17097e-05 5.67604e-05 7.88028e-05 9.1541e-05 0.00011408 0.000184564 0.000200391 0.000165454 0.000146615 0.000189327 0.000254025 0.000298995 0.000289826 0.000278566 0.000297181 0.000322411 0.000363464 0.000435609 0.000422127 -4.84741e-06 -0.00014121 -0.000270594 -0.000288214 -0.000277428 -0.00016401 -9.66138e-05 -0.000152981 -0.000201007 -5.5028e-05 1.43125e-05 4.85194e-06 1.50678e-05 -4.24852e-05 -0.000136614 -0.000144769 -0.000139177 -0.000130014 -3.21003e-05 9.91892e-05 0.000209571 0.000263297 0.000282465 0.000322432 0.000347913 0.000337655 0.000320707 0.000323237 0.000344009 0.000399512 0.000323904 0.000272186 0.00029767 0.000333986 0.000369694 0.000388769 0.000344635 0.000187633 0.000204064 0.000227856 0.000181088 0.000110158 0.000110614 0.000128252 0.000145518 1.97711e-05 -4.36247e-05 -5.7816e-05 -7.77088e-05 -9.49307e-05 -0.00011067 -9.47696e-05 -6.61835e-05 -1.71378e-05 -9.96003e-06 1.5158e-05 6.04465e-05 8.53534e-05 6.40296e-05 5.43976e-05 9.08561e-05 0.000138589 0.000184606 0.000245688 0.000272527 0.000264658 0.000235216 0.000237942 0.000284767 0.000347504 0.00034624 0.000317981 0.000322583 0.000325554 0.000329652 0.000389742 0.00041237 4.36911e-05 -7.56354e-05 -0.000280049 -0.000383703 -0.00029612 -0.000125831 -0.000104084 -0.000174072 -0.000188435 -7.94413e-05 -1.94546e-05 -6.42186e-06 1.55314e-05 1.65498e-06 -4.96507e-05 -6.43582e-05 -7.00442e-05 -6.80676e-05 1.89961e-05 0.000169173 0.000289503 0.000307735 0.000294633 0.000348592 0.000389931 0.000388771 0.000363432 0.000342321 0.000362852 0.000410327 0.00033169 0.00031958 0.000379101 0.000408515 0.000453734 0.000479173 0.000394754 0.000238297 0.00023522 0.000235686 0.000163309 0.000151845 0.000161529 0.00015236 0.000162068 5.09672e-05 -1.59766e-05 -4.95235e-05 -7.15705e-05 -7.42287e-05 -6.4159e-05 -2.43687e-05 2.64262e-06 5.83039e-06 4.37054e-06 3.85114e-05 7.95336e-05 9.90832e-05 8.00084e-05 5.16089e-05 0.000111382 0.000185377 0.000217037 0.000273547 0.000318289 0.000344853 0.000322137 0.000294659 0.000306332 0.000351788 0.000372601 0.000358639 0.000350259 0.000341947 0.000316749 0.000335802 0.000393634 1.79334e-05 -4.2775e-05 -0.000234915 -0.000396369 -0.000254752 -7.7479e-05 -0.000124322 -0.000216135 -0.000173371 -0.000107893 -9.02004e-05 -7.77057e-05 -3.23353e-05 6.44669e-06 5.79319e-06 -1.79866e-05 -2.25702e-05 -5.99105e-07 8.63893e-05 0.000211202 0.000282567 0.000274158 0.000280113 0.000349421 0.000389414 0.000387947 0.000383045 0.000379118 0.000365148 0.000390298 0.000370843 0.000393074 0.00045991 0.000484684 0.000505691 0.000498842 0.000372832 0.000257342 0.000189377 0.000177652 0.000150459 0.000198037 0.000203926 0.000154988 0.000116923 6.13647e-05 1.4997e-05 -3.45979e-05 -6.26236e-05 -6.18904e-05 -3.12048e-05 3.72064e-05 8.38539e-05 5.30175e-05 5.60807e-05 9.04698e-05 0.000120999 0.000139051 0.000129233 8.45892e-05 0.000147069 0.000240886 0.000240025 0.000274136 0.000344477 0.000398427 0.000400764 0.000370607 0.000349331 0.000363826 0.000391886 0.000397908 0.000390529 0.000371517 0.000338057 0.000334649 0.000383782 -7.77293e-05 -0.000120181 -0.00022084 -0.000325319 -0.00021516 -0.000103476 -0.000184158 -0.000288098 -0.000202718 -0.000130434 -0.000130902 -0.000133245 -8.70585e-05 -3.96177e-05 -3.59428e-05 -1.20092e-05 4.47266e-05 0.000105786 0.000175673 0.000228682 0.000205778 0.000175165 0.000211075 0.000295116 0.000345427 0.000334138 0.000355237 0.000380787 0.000350537 0.000360643 0.000408236 0.000458106 0.000500425 0.000511848 0.000518112 0.000485104 0.00036239 0.000258991 0.000105142 8.92248e-05 0.00012961 0.000203342 0.000222589 0.000171815 0.000102226 5.21753e-05 3.13627e-05 -7.68242e-06 -2.53399e-05 -3.21604e-05 2.20561e-05 0.000110949 0.00017976 0.000129327 0.000128973 0.000153991 0.000175941 0.000195505 0.000204247 0.000172123 0.000183462 0.000283199 0.000274697 0.00028 0.000354964 0.000414424 0.000435204 0.000420374 0.000382094 0.000389163 0.000404763 0.000414552 0.000398769 0.000374283 0.000348957 0.000360045 0.00038401 -0.000152643 -0.000224661 -0.000251412 -0.000258629 -0.000207185 -0.000187544 -0.000257764 -0.000306407 -0.000196624 -0.000121371 -0.00012634 -0.000148997 -0.000158408 -0.00019762 -0.00024279 -0.000115926 6.67836e-05 0.000226713 0.000283644 0.000254138 0.000155119 9.64169e-05 0.000132834 0.000232453 0.000289325 0.000291723 0.000339396 0.000385777 0.000358934 0.00037397 0.000445205 0.000502571 0.000521361 0.000512426 0.000523877 0.000512901 0.000407017 0.000263657 9.0102e-05 8.11267e-05 0.0001666 0.000217133 0.000236273 0.000191195 0.000118006 4.09194e-05 3.30564e-05 1.84657e-05 2.3082e-05 3.75036e-05 0.000107254 0.000177037 0.000237933 0.000206377 0.000206836 0.000224572 0.000239663 0.000260759 0.000281589 0.000266341 0.000211475 0.000299651 0.000326014 0.00032482 0.000372706 0.000396032 0.000420827 0.000433789 0.000388849 0.000408717 0.000413793 0.000414317 0.0003659 0.000353425 0.000343182 0.000372236 0.000371743 -0.000128131 -0.000201981 -0.000213299 -0.000163752 -0.000132087 -0.000180424 -0.000266143 -0.000263172 -0.000151429 -9.73632e-05 -0.000118278 -0.000167558 -0.000235607 -0.000354496 -0.000391724 -0.000184858 7.84938e-05 0.000306496 0.000356315 0.00028708 0.000174365 8.92969e-05 9.04894e-05 0.000174643 0.000239608 0.000276754 0.00033043 0.000413677 0.000415554 0.000435493 0.0004684 0.000499442 0.000502592 0.000486283 0.00051528 0.00051943 0.000397092 0.000245362 0.000173171 0.000201603 0.000291495 0.000276807 0.000258904 0.000213153 0.00014744 7.53183e-05 5.94325e-05 6.36607e-05 7.33295e-05 0.0001182 0.00016525 0.000204296 0.000248468 0.000255873 0.00025732 0.000273602 0.000290383 0.000316402 0.000336751 0.000309306 0.000238873 0.000322773 0.000369125 0.000372108 0.00039876 0.000384156 0.000409063 0.000438647 0.000388644 0.000413663 0.000433243 0.000429215 0.000346466 0.000343973 0.00032487 0.000365067 0.000348378 -6.67097e-05 -9.92059e-05 -0.000102854 -2.46219e-05 1.40149e-05 -3.28711e-05 -0.000129409 -0.000145622 -7.23496e-05 -4.6441e-05 -7.34334e-05 -0.000126104 -0.000202238 -0.000310204 -0.000285806 -9.49713e-05 0.000144744 0.000300362 0.000360962 0.000330708 0.000241561 0.000149844 9.82997e-05 0.000138971 0.000221906 0.000272463 0.000301173 0.000409222 0.000466203 0.000493525 0.000482329 0.000473958 0.000445004 0.000430497 0.00048283 0.000470448 0.000325138 0.000254953 0.000305044 0.000346148 0.000383467 0.000331391 0.000283295 0.000231119 0.000179959 0.000150656 0.000133589 0.0001333 0.000128248 0.000155637 0.00016837 0.000202982 0.000241002 0.000267128 0.000262447 0.000266066 0.000305783 0.000351508 0.000374339 0.000324034 0.00027463 0.00033566 0.000363572 0.000380383 0.000408617 0.000405604 0.00043281 0.00043105 0.00036377 0.000364274 0.000409294 0.00042955 0.000359024 0.000357603 0.000323228 0.000368811 0.000363176 -4.03227e-05 -3.77225e-05 -1.44299e-05 6.90888e-05 0.000116476 0.000132683 8.42308e-05 3.50072e-05 4.40367e-05 5.13619e-05 4.35674e-05 1.7102e-05 -3.76472e-05 -0.000115805 -9.20233e-05 2.90845e-05 0.000182572 0.000230379 0.000317515 0.000347263 0.000279374 0.000196144 0.000127164 0.000164395 0.000249057 0.000297628 0.000325312 0.000431221 0.000501274 0.000527324 0.000508762 0.000478492 0.000429072 0.000423001 0.000457206 0.000420388 0.000270787 0.000274981 0.000364257 0.000387085 0.000372107 0.000337727 0.000294137 0.000237062 0.000204154 0.000219955 0.000216471 0.000202412 0.000177349 0.000165311 0.000170472 0.000198693 0.000215994 0.00023962 0.00024066 0.000238989 0.000309824 0.000377784 0.000399158 0.000346618 0.000326932 0.00033836 0.000343038 0.000391385 0.000419148 0.000444576 0.000474336 0.00041437 0.000323174 0.000300118 0.000366495 0.000413655 0.000399201 0.000388661 0.00038062 0.000397963 0.000405533 -5.82923e-05 -3.70813e-05 1.54115e-05 9.63587e-05 0.000147843 0.00020031 0.000199758 0.000165885 0.000151967 0.000166721 0.000176669 0.00016817 0.000130223 7.75037e-05 8.5628e-05 0.000152451 0.000220998 0.000236001 0.000298223 0.000302054 0.000249328 0.000186935 0.000141219 0.000199707 0.000263343 0.000291291 0.000373723 0.000503 0.000553592 0.000550891 0.000524156 0.000468468 0.000455166 0.000445561 0.000435323 0.000373898 0.000251196 0.000251943 0.000304164 0.000326523 0.000327034 0.000329136 0.000297637 0.000249161 0.000229389 0.000265067 0.000264585 0.000259418 0.00022419 0.000199528 0.000205263 0.000215977 0.000207219 0.000207194 0.000229042 0.00026069 0.000336429 0.000395786 0.000395402 0.000364266 0.000367922 0.000365248 0.000361647 0.000433774 0.000439567 0.000454831 0.000486734 0.000415322 0.000340993 0.000328021 0.000394854 0.000426645 0.000440709 0.0004189 0.000454497 0.000434362 0.000405805 -0.00010808 -7.9806e-05 -1.00046e-05 9.19996e-05 0.000152804 0.000