# vtk DataFile Version 2.0
3D Data
ASCII
DATASET UNSTRUCTURED_GRID
POINTS 4466 double 
-322951 1.56583e+06 -2547.97
-313165 1.56583e+06 -2602.17
-303379 1.56583e+06 -2637.32
-293592 1.56583e+06 -2686.47
-283806 1.56583e+06 -2764.9
-274019 1.56583e+06 -2838.41
-264233 1.56583e+06 -2850.64
-254447 1.56583e+06 -2871.57
-244660 1.56583e+06 -2881.6
-234874 1.56583e+06 -2891.49
-225087 1.56583e+06 -2949.29
-215301 1.56583e+06 -2972.05
-205515 1.56583e+06 -2984.69
-195728 1.56583e+06 -3015.27
-185942 1.56583e+06 -3019.06
-176155 1.56583e+06 -3026.33
-166369 1.56583e+06 -3060.46
-156583 1.56583e+06 -3072.83
-146796 1.56583e+06 -3086.91
-137010 1.56583e+06 -3086.35
-127223 1.56583e+06 -3110.01
-117437 1.56583e+06 -3119.61
-107650 1.56583e+06 -3128.71
-97864.1 1.56583e+06 -3150.03
-88077.7 1.56583e+06 -3164.17
-78291.3 1.56583e+06 -3178.78
-68504.9 1.56583e+06 -3189.48
-58718.5 1.56583e+06 -3199.6
-48932 1.56583e+06 -3223.8
-39145.6 1.56583e+06 -3244.39
-29359.2 1.56583e+06 -3275.1
-19572.8 1.56583e+06 -3296.58
-9786.41 1.56583e+06 -3309.08
0 1.56583e+06 -3320.83
9786.41 1.56583e+06 -3331.36
19572.8 1.56583e+06 -3354.22
29359.2 1.56583e+06 -3376.37
39145.6 1.56583e+06 -3393.03
48932 1.56583e+06 -3402.63
58718.5 1.56583e+06 -3419.11
68504.9 1.56583e+06 -3442.84
78291.3 1.56583e+06 -3456.65
88077.7 1.56583e+06 -3472.16
97864.1 1.56583e+06 -3489.27
107650 1.56583e+06 -3510.78
117437 1.56583e+06 -3536.9
127223 1.56583e+06 -3555.05
137010 1.56583e+06 -3567.02
146796 1.56583e+06 -3580.42
156583 1.56583e+06 -3592.57
166369 1.56583e+06 -3618.56
176155 1.56583e+06 -3637.12
185942 1.56583e+06 -3655.65
195728 1.56583e+06 -3666.73
205515 1.56583e+06 -3675.35
215301 1.56583e+06 -3690.13
225087 1.56583e+06 -3704.1
234874 1.56583e+06 -3722.66
244660 1.56583e+06 -3740.58
254447 1.56583e+06 -3760.52
264233 1.56583e+06 -3775.29
274019 1.56583e+06 -3783.85
283806 1.56583e+06 -3804.56
293592 1.56583e+06 -3814.83
303379 1.56583e+06 -3828.03
313165 1.56583e+06 -3842.02
322951 1.56583e+06 -3845.95
332738 1.56583e+06 -3864.74
342524 1.56583e+06 -3877.4
352311 1.56583e+06 -3883.57
362097 1.56583e+06 -3893.29
371884 1.56583e+06 -3907.73
381670 1.56583e+06 -3912.61
391456 1.56583e+06 -3924.46
401243 1.56583e+06 -3940.49
411029 1.56583e+06 -3948.83
420816 1.56583e+06 -3952.82
-322951 1.57561e+06 -2561.92
-313165 1.57561e+06 -2623.46
-303379 1.57561e+06 -2652.71
-293592 1.57561e+06 -2707.28
-283806 1.57561e+06 -2807.85
-274019 1.57561e+06 -2864.78
-264233 1.57561e+06 -2884.22
-254447 1.57561e+06 -2871
-244660 1.57561e+06 -2887.87
-234874 1.57561e+06 -2936.19
-225087 1.57561e+06 -2979.01
-215301 1.57561e+06 -2990.74
-205515 1.57561e+06 -2985.5
-195728 1.57561e+06 -3035.11
-185942 1.57561e+06 -3028.19
-176155 1.57561e+06 -3044.84
-166369 1.57561e+06 -3071.47
-156583 1.57561e+06 -3083
-146796 1.57561e+06 -3095.08
-137010 1.57561e+06 -3108.42
-127223 1.57561e+06 -3123.45
-117437 1.57561e+06 -3145.19
-107650 1.57561e+06 -3156.15
-97864.1 1.57561e+06 -3167.34
-88077.7 1.57561e+06 -3173.84
-78291.3 1.57561e+06 -3187.35
-68504.9 1.57561e+06 -3199.21
-58718.5 1.57561e+06 -3216.35
-48932 1.57561e+06 -3227.27
-39145.6 1.57561e+06 -3245.77
-29359.2 1.57561e+06 -3279.92
-19572.8 1.57561e+06 -3303.04
-9786.41 1.57561e+06 -3322.04
0 1.57561e+06 -3332.39
9786.41 1.57561e+06 -3350.18
19572.8 1.57561e+06 -3366.15
29359.2 1.57561e+06 -3383.69
39145.6 1.57561e+06 -3397.38
48932 1.57561e+06 -3410.52
58718.5 1.57561e+06 -3426.44
68504.9 1.57561e+06 -3452.51
78291.3 1.57561e+06 -3469.63
88077.7 1.57561e+06 -3484.77
97864.1 1.57561e+06 -3497.25
107650 1.57561e+06 -3519.47
117437 1.57561e+06 -3538.87
127223 1.57561e+06 -3544.31
137010 1.57561e+06 -3576.64
146796 1.57561e+06 -3589.92
156583 1.57561e+06 -3605.78
166369 1.57561e+06 -3616.51
176155 1.57561e+06 -3634.62
185942 1.57561e+06 -3658.46
195728 1.57561e+06 -3666.79
205515 1.57561e+06 -3686.74
215301 1.57561e+06 -3701.3
225087 1.57561e+06 -3711.87
234874 1.57561e+06 -3731.49
244660 1.57561e+06 -3746.19
254447 1.57561e+06 -3759.45
264233 1.57561e+06 -3777.85
274019 1.57561e+06 -3787.65
283806 1.57561e+06 -3805.73
293592 1.57561e+06 -3822.95
303379 1.57561e+06 -3827.76
313165 1.57561e+06 -3844.33
322951 1.57561e+06 -3852.51
332738 1.57561e+06 -3868.06
342524 1.57561e+06 -3887.05
352311 1.57561e+06 -3888.88
362097 1.57561e+06 -3897.29
371884 1.57561e+06 -3909.61
381670 1.57561e+06 -3917.67
391456 1.57561e+06 -3927.28
401243 1.57561e+06 -3938.24
411029 1.57561e+06 -3953
420816 1.57561e+06 -3954
-322951 1.5854e+06 -2672.8
-313165 1.5854e+06 -2658.26
-303379 1.5854e+06 -2703.45
-293592 1.5854e+06 -2764.83
-283806 1.5854e+06 -2847.27
-274019 1.5854e+06 -2896.77
-264233 1.5854e+06 -2894.56
-254447 1.5854e+06 -2883.57
-244660 1.5854e+06 -2920.03
-234874 1.5854e+06 -2969.8
-225087 1.5854e+06 -3004.97
-215301 1.5854e+06 -3010.1
-205515 1.5854e+06 -3019.94
-195728 1.5854e+06 -3058.61
-185942 1.5854e+06 -3063.28
-176155 1.5854e+06 -3068.69
-166369 1.5854e+06 -3094.81
-156583 1.5854e+06 -3104.45
-146796 1.5854e+06 -3126.8
-137010 1.5854e+06 -3140.17
-127223 1.5854e+06 -3146.78
-117437 1.5854e+06 -3153.07
-107650 1.5854e+06 -3170.16
-97864.1 1.5854e+06 -3177.55
-88077.7 1.5854e+06 -3192.64
-78291.3 1.5854e+06 -3201.84
-68504.9 1.5854e+06 -3216.69
-58718.5 1.5854e+06 -3226.56
-48932 1.5854e+06 -3236.07
-39145.6 1.5854e+06 -3260.59
-29359.2 1.5854e+06 -3281.96
-19572.8 1.5854e+06 -3312.65
-9786.41 1.5854e+06 -3333.22
0 1.5854e+06 -3333.8
9786.41 1.5854e+06 -3361.18
19572.8 1.5854e+06 -3369.12
29359.2 1.5854e+06 -3392.27
39145.6 1.5854e+06 -3407.94
48932 1.5854e+06 -3422.26
58718.5 1.5854e+06 -3432.55
68504.9 1.5854e+06 -3456.01
78291.3 1.5854e+06 -3478.29
88077.7 1.5854e+06 -3488.16
97864.1 1.5854e+06 -3498.38
107650 1.5854e+06 -3519.3
117437 1.5854e+06 -3531.44
127223 1.5854e+06 -3552.83
137010 1.5854e+06 -3584.6
146796 1.5854e+06 -3597.39
156583 1.5854e+06 -3614.98
166369 1.5854e+06 -3617.53
176155 1.5854e+06 -3643.47
185942 1.5854e+06 -3667.94
195728 1.5854e+06 -3672.91
205515 1.5854e+06 -3691.91
215301 1.5854e+06 -3696.3
225087 1.5854e+06 -3715.17
234874 1.5854e+06 -3729.75
244660 1.5854e+06 -3752.85
254447 1.5854e+06 -3761.84
264233 1.5854e+06 -3778.61
274019 1.5854e+06 -3803.03
283806 1.5854e+06 -3811.61
293592 1.5854e+06 -3827.59
303379 1.5854e+06 -3835.63
313165 1.5854e+06 -3846.17
322951 1.5854e+06 -3857.92
332738 1.5854e+06 -3872.74
342524 1.5854e+06 -3883.65
352311 1.5854e+06 -3895.71
362097 1.5854e+06 -3899.5
371884 1.5854e+06 -3911.88
381670 1.5854e+06 -3922.07
391456 1.5854e+06 -3929.46
401243 1.5854e+06 -3945
411029 1.5854e+06 -3951.02
420816 1.5854e+06 -3954.82
-322951 1.59518e+06 -2694.59
-313165 1.59518e+06 -2714.27
-303379 1.59518e+06 -2792.17
-293592 1.59518e+06 -2835.82
-283806 1.59518e+06 -2923.23
-274019 1.59518e+06 -2932.61
-264233 1.59518e+06 -2909.92
-254447 1.59518e+06 -2927.93
-244660 1.59518e+06 -2956.78
-234874 1.59518e+06 -3019.4
-225087 1.59518e+06 -3024.82
-215301 1.59518e+06 -3047.25
-205515 1.59518e+06 -3055.19
-195728 1.59518e+06 -3083.64
-185942 1.59518e+06 -3070.55
-176155 1.59518e+06 -3106.03
-166369 1.59518e+06 -3109.85
-156583 1.59518e+06 -3109.95
-146796 1.59518e+06 -3124.37
-137010 1.59518e+06 -3146.97
-127223 1.59518e+06 -3161.03
-117437 1.59518e+06 -3177.05
-107650 1.59518e+06 -3189.07
-97864.1 1.59518e+06 -3197.66
-88077.7 1.59518e+06 -3205.25
-78291.3 1.59518e+06 -3216.13
-68504.9 1.59518e+06 -3224.37
-58718.5 1.59518e+06 -3232.78
-48932 1.59518e+06 -3238.59
-39145.6 1.59518e+06 -3270.44
-29359.2 1.59518e+06 -3295.47
-19572.8 1.59518e+06 -3324.47
-9786.41 1.59518e+06 -3339.17
0 1.59518e+06 -3349
9786.41 1.59518e+06 -3365.76
19572.8 1.59518e+06 -3380.15
29359.2 1.59518e+06 -3395.38
39145.6 1.59518e+06 -3412.63
48932 1.59518e+06 -3426.69
58718.5 1.59518e+06 -3440.72
68504.9 1.59518e+06 -3460.02
78291.3 1.59518e+06 -3483.24
88077.7 1.59518e+06 -3491.26
97864.1 1.59518e+06 -3502.02
107650 1.59518e+06 -3524.3
117437 1.59518e+06 -3540.81
127223 1.59518e+06 -3559.44
137010 1.59518e+06 -3585.4
146796 1.59518e+06 -3609.98
156583 1.59518e+06 -3622.58
166369 1.59518e+06 -3625.67
176155 1.59518e+06 -3638.5
185942 1.59518e+06 -3665.76
195728 1.59518e+06 -3682.55
205515 1.59518e+06 -3699.51
215301 1.59518e+06 -3705.36
225087 1.59518e+06 -3715.29
234874 1.59518e+06 -3735.81
244660 1.59518e+06 -3756.98
254447 1.59518e+06 -3769.55
264233 1.59518e+06 -3781.65
274019 1.59518e+06 -3800.02
283806 1.59518e+06 -3818.59
293592 1.59518e+06 -3824.48
303379 1.59518e+06 -3839.18
313165 1.59518e+06 -3851.17
322951 1.59518e+06 -3862.14
332738 1.59518e+06 -3871.32
342524 1.59518e+06 -3884.52
352311 1.59518e+06 -3896.56
362097 1.59518e+06 -3904.26
371884 1.59518e+06 -3914.07
381670 1.59518e+06 -3924.22
391456 1.59518e+06 -3934.64
401243 1.59518e+06 -3942
411029 1.59518e+06 -3944.82
420816 1.59518e+06 -3952.82
-322951 1.60497e+06 -2621.23
-313165 1.60497e+06 -2755.22
-303379 1.60497e+06 -2897.66
-293592 1.60497e+06 -2968.33
-283806 1.60497e+06 -2976.52
-274019 1.60497e+06 -2950.94
-264233 1.60497e+06 -2948.88
-254447 1.60497e+06 -2966.42
-244660 1.60497e+06 -3010.7
-234874 1.60497e+06 -3060.52
-225087 1.60497e+06 -3071.94
-215301 1.60497e+06 -3070.61
-205515 1.60497e+06 -3081.38
-195728 1.60497e+06 -3104.73
-185942 1.60497e+06 -3098.88
-176155 1.60497e+06 -3115.47
-166369 1.60497e+06 -3131.31
-156583 1.60497e+06 -3143.32
-146796 1.60497e+06 -3153.51
-137010 1.60497e+06 -3173.86
-127223 1.60497e+06 -3183.91
-117437 1.60497e+06 -3185.07
-107650 1.60497e+06 -3191.34
-97864.1 1.60497e+06 -3200.13
-88077.7 1.60497e+06 -3205.89
-78291.3 1.60497e+06 -3220.71
-68504.9 1.60497e+06 -3234.44
-58718.5 1.60497e+06 -3247.22
-48932 1.60497e+06 -3268.08
-39145.6 1.60497e+06 -3292.48
-29359.2 1.60497e+06 -3313.6
-19572.8 1.60497e+06 -3335.24
-9786.41 1.60497e+06 -3343
0 1.60497e+06 -3357.97
9786.41 1.60497e+06 -3376.54
19572.8 1.60497e+06 -3389.57
29359.2 1.60497e+06 -3402.34
39145.6 1.60497e+06 -3417.15
48932 1.60497e+06 -3428.97
58718.5 1.60497e+06 -3449.44
68504.9 1.60497e+06 -3463.51
78291.3 1.60497e+06 -3484.57
[...]
POINT_DATA 4466
SCALARS T double
LOOKUP_TABLE default
-34.1692 17.5332 24.1284 19.0661 -2.49057 -14.1864 -28.3487 -31.5959 -0.608027 10.8576 11.7914 -29.5545 -52.5748 -43.6249 -4.11273 35.0502 44.661 47.3195 30.9051 -23.7098 -18.4531 -36.6071 -45.8741 -36.9037 -14.9323 -6.94608 -114.675 -111.014 -88.0643 -77.2689 -65.3012 -48.6741 -46.1151 -49.5941 -39.5004 -41.3886 -6.71592 30.3467 6.74028 -3.37377 14.7681 15.2354 -6.25943 1.17561 37.8265 55.5053 108.825 105.343 101.279 126.492 67.9361 77.1043 92.7109 42.8916 1.08765 -21.8399 -1.24267 7.72285 5.43866 -1.71501 15.176 14.4143 14.2786 17.1798 19.5825 26.2251 31.8883 9.5586 2.12006 63.8203 -13.1279 25.2118 8.20414 68.9365 200.079 1.79248 38.5793 -40.894 1.55369 16.2716 17.9052 -4.53906 -29.8424 -22.7949 -8.51113 13.859 4.83116 -7.30583 -44.8108 -68.5154 -59.8882 -22.8032 -6.14958 -1.99614 26.7022 -2.99976 -14.0245 -34.4053 -41.683 -65.8678 -63.8701 -38.7582 -13.506 6.06388 -98.7121 -114.213 -87.6878 -79.8128 -57.792 -48.0174 -41.6485 -48.7248 -50.3146 -38.3109 -33.5773 -34.7056 -21.6878 -7.85532 2.33215 -15.1595 -15.4871 -17.286 6.10308 59.1151 107.508 129.975 128.351 111.656 119.561 118.145 59.8875 34.7 -16.7951 -16.1444 -2.82572 0.952817 0.296212 8.49152 10.3311 1.95611 11.7053 33.6816 39.7984 29.0516 5.04523 -14.7238 41.324 83.3346 19.6471 -1.85472 68.5751 48.2756 11.9736 57.7688 -23.859 -0.081141 11.7817 -0.994567 7.30974 -10.6701 -13.0468 -18.515 -31.1903 -38.6724 -44.3005 -69.1653 -72.9421 -55.1316 -43.0676 -40.4287 -39.5875 -1.9864 8.38528 -10.3266 -25.7904 -35.358 -62.179 -60.0302 -22.284 -30.1028 11.1346 -2.17859 -128.252 -100.142 -88.9511 -68.5911 -67.4914 -49.757 -58.4169 -56.0522 -51.2596 -50.9491 -47.7804 -38.0608 -22.7339 -21.7376 -2.98749 14.8028 5.37768 18.0655 32.5155 52.3075 75.801 84.7592 94.2335 105.024 84.5189 56.11 40.1555 -0.535652 -24.4192 -14.9651 -12.5538 -0.785132 7.48844 13.1097 11.1893 28.2725 50.0063 38.6341 27.881 10.1088 -9.02707 72.7582 107.054 -6.27 -14.6053 20.8258 15.8359 9.38664 23.2143 -56.316 -13.0454 25.6366 -6.48966 5.67525 -24.7398 -32.4323 -40.3378 -57.425 -74.1409 -86.8963 -93.6635 -76.6085 -57.7298 -52.7202 -49.148 -56.8441 -41.5313 -26.1594 -32.7601 -35.1142 -31.1212 -57.4591 -56.2516 35.7348 41.5817 -48.6575 -5.68232 -13.987 -114.137 -100.606 -89.8536 -75.3911 -64.8215 -61.818 -46.7455 -52.0243 -50.6076 -52.1516 -43.8398 -45.2389 -39.6951 -8.77896 -8.17875 2.84096 14.0392 13.4202 13.6752 29.613 35.1501 40.0138 51.6784 53.4847 42.9951 23.2222 -2.08816 5.90582 6.48804 -15.8741 -7.46608 -4.26771 1.56643 28.3852 64.2822 57.1713 30.5432 12.6299 -3.28504 13.3723 13.0068 -3.22995 -19.1532 -10.4538 64.0155 66.3094 7.79665 0.296611 -76.1329 -55.6017 -28.8004 -14.4568 -34.7805 -46.5236 -70.2876 -65.7402 -88.6572 -105.816 -118.801 -108.943 -88.4949 -71.5591 -59.3243 -70.2842 -75.1751 -58.4929 -48.7038 -56.5894 -51.1438 -35.0188 -47.5645 -55.7411 -23.4852 -28.0393 -56.1557 -49.0133 -33.3271 -83.395 -103.701 -94.2333 -81.6136 -80.3875 -77.5395 -66.49 -62.2584 -55.883 -53.8193 -45.7854 -40.563 -9.10329 -1.87765 -19.091 -11.044 0.786423 -5.06552 -10.5192 12.0859 26.5948 25.6899 14.509 39.2598 5.5355 -3.84404 5.32244 2.32019 -8.46212 -20.6862 -12.8245 -16.5651 -17.288 2.80271 3.2444 34.9116 16.1227 0.654289 -27.9129 16.5356 17.7493 -21.7591 -28.2439 -22.4102 38.9925 28.4929 -20.3289 -15.2066 -127.423 -101.622 -64.7716 -50.7932 -54.7961 -59.1225 -77.8338 -100.369 -111.452 -129.779 -140.03 -122.948 -110.43 -81.197 -57.9662 -70.1392 -81.6664 -75.1103 -65.7101 -52.9024 -38.5293 -17.3658 -26.427 -43.8258 -33.8886 -51.649 -29.7111 -3.14781 -23.7062 -45.1025 -116.939 -97.6443 -82.3275 -81.4954 -96.653 -83.4395 -71.8275 -62.0096 -55.1896 -36.1051 -31.0913 -26.0603 -37.9207 -31.8516 -10.0424 -11.9074 -14.5628 -9.63068 8.95922 17.7382 7.10446 -5.67924 0.0362066 -17.2409 -25.1297 -5.91297 -17.1894 -17.0021 -23.6355 -20.7484 -16.7023 -12.501 -11.2511 -6.42839 13.6702 27.81 26.4226 102.069 93.9831 15.2651 -25.5557 -21.5762 -6.88878 87.0906 11.0406 -32.5276 -24.5185 -131.441 -134.244 -112.381 -70.9007 -103.212 -65.1537 -72.2489 -122.685 -128.527 -122.213 -79.985 -35.7809 17.0825 11.9702 -14.2657 -43.9904 -52.1408 -59.4117 -52.8938 -29.0076 -9.21488 9.67896 -8.69312 -31.5547 -27.6012 -15.7304 31.4739 6.59162 1.96665 2.50098 -50.7515 -104.994 -96.9937 -89.5865 -86.7896 -83.8212 -73.4197 -58.3186 -58.5983 -42.5978 -39.0095 -10.5548 -28.977 -27.0957 -16.1069 -11.3148 -18.2809 6.59317 7.04987 4.66783 -3.85607 -10.6263 -9.44624 -8.96271 -9.36753 -23.9597 -38.2302 -28.4093 -26.7429 -23.049 -12.6338 -13.6496 -6.70026 3.22206 0.375545 34.9926 26.4467 50.2386 30.8088 -2.98837 -27.4569 -18.4897 15.4703 14.9517 -11.0573 -23.1808 -33.9985 -167.147 -140.949 -98.453 -127.793 -115.937 -114.69 -106.138 -109.849 -89.98 -35.515 36.1907 61.0257 110.519 136.256 108.455 67.2787 38.3282 -21.9692 -8.33764 16.7065 40.8531 45.7122 -0.851423 -34.41 -50.471 -46.4301 -19.7996 -9.46392 14.2647 0.906645 9.3488 -34.7623 -76.7195 -75.3473 -75.892 -79.4145 -65.9323 -31.1944 -55.9506 -37.4267 -21.7961 -20.8242 -2.48106 -24.5737 -20.883 -14.3152 -26.6963 -21.4287 -6.70339 -7.94337 -10.5438 -3.29298 3.66422 -1.65479 -0.507123 -13.0607 -22.2884 -18.1686 -36.464 -6.93445 -30.7162 -24.9212 -13.0684 -3.18432 -4.97859 5.92908 17.3963 13.2592 6.54662 3.07453 -17.4394 -7.67376 9.04461 0.449693 -9.03735 -11.8883 -20.5541 -185.956 -140.104 -100.442 -103.59 -105.497 -117.821 -94.8029 -65.3887 -8.82477 49.2671 71.2662 128.336 208.445 205.572 172.585 151.482 86.6092 19.1732 38.0241 57.9076 65.8976 66.7569 5.52942 -28.069 -45.7906 -63.0054 -64.2635 -56.0006 -41.8259 -25.5265 -13.0028 17.0139 -50.6892 -39.4217 -55.2102 -65.3197 -51.3643 -27.9016 -33.6137 -39.0762 -12.9281 -27.6289 -13.2577 -24.5203 -28.0802 -24.6317 -13.6817 -22.9172 -20.0233 -19.6825 -19.9226 -15.2629 -8.73332 -28.0763 -26.0327 -23.9913 -38.636 -21.9743 -27.3312 -35.4254 -61.2734 -39.0432 -25.5155 -24.0749 -6.76902 3.37535 15.821 4.83884 4.80194 -1.32568 -12.1846 -9.67318 -2.11116 3.60106 -10.4637 2.36785 -3.80624 -186.923 -158.177 -134.394 -122.78 -106.34 -98.5649 -46.6292 -58.1452 -10.3215 22.8425 61.2924 104.395 164.498 98.7581 89.8589 111.986 58.5407 35.2732 63.484 73.9033 106.992 103.309 41.301 -11.1341 -33.5563 7.60431 118.697 -37.4411 -48.0548 -19.6988 -1.35916 -0.542287 -29.5076 -51.0269 -53.3307 -66.9392 -67.9541 -58.2709 -45.544 -37.2728 -11.1765 -14.7034 9.76207 -20.6918 -38.0017 -53.2268 -42.6842 -29.2719 -14.9441 -23.9779 -27.6977 -28.4509 -30.8651 -58.7174 -50.5557 -20.6773 -7.40014 16.007 -44.6494 -58.8075 -36.9135 3.89637 -35.8697 -34.4676 -15.5137 -20.4953 -22.1387 6.80706 -1.74157 -35.0577 -28.5527 -8.20246 5.48458 13.4353 2.83723 -4.62379 -12.131 -112.337 -166.667 -130.597 -121.694 -100.504 -108.789 -60.9013 -66.4053 -52.1266 -21.4235 9.2345 8.05319 64.4939 -50.0435 -12.881 47.1932 59.7788 27.7216 38.5467 72.5117 129.208 150.098 62.102 18.9886 19.4766 29.5165 23.2653 -39.1422 -23.6201 -6.61264 6.86431 30.1823 -3.86427 -36.9653 -63.2303 -55.6161 -52.7423 -49.7027 -31.3486 -31.0697 -21.5368 0.332196 -2.53154 -38.2106 -33.3992 -59.4487 -39.0369 -8.37674 -8.78481 -30.1382 -40.0581 -53.1432 -77.0014 -37.2683 -35.4808 35.4685 13.4327 -31.178 9.85953 -2.02854 -37.34 -0.539736 -13.525 -45.8912 -46.5872 -50.4006 -33.1328 13.5208 11.7185 -27.6458 -13.3667 14.7199 23.7807 17.8534 17.9112 -16.0619 -23.3448 -75.8479 -47.5319 -56.6223 -91.9092 -100.746 -98.2536 -75.8767 -77.8812 -65.5244 -65.7239 -4.79181 -59.3407 -34.6201 -7.34221 18.7703 -37.7016 -7.71568 -13.6541 0.392856 20.1309 117.887 180.161 121.621 78.5116 69.1416 126.413 145.629 -18.8952 -35.7489 -31.8584 28.5285 116 51.5405 18.2236 -32.7434 -32.7503 2.89691 -25.4642 -39.1496 -42.8694 -27.069 -15.1808 -28.3204 -35.6811 -38.4215 -27.6493 -30.219 -19.5974 -26.079 -37.8943 -43.0813 -38.0066 -65.906 -49.5932 -24.2317 72.8831 3.57655 8.68548 142.035 33.3144 -28.406 -26.4833 -33.8127 -28.5088 -66.9319 -60.5955 -22.369 20.1058 -18.1693 -10.8113 32.1458 43.934 0.43884 -13.8677 -17.3284 -27.9668 -21.9889 -49.4219 -63.6717 -55.7444 -84.9877 18.4835 -43.8356 -57.8017 -43.873 -70.648 -70.967 -75.8416 -38.7733 -82.9782 24.2686 -83.3687 -35.6835 -53.0883 -50.6364 -33.587 -7.15409 71.8897 126.525 95.1691 87.0217 87.4095 0.190022 14.135 -22.7686 -41.3778 -45.6025 1.92305 60.9407 44.0282 56.2125 47.9166 -41.0034 -16.105 -10.6369 -55.9863 -39.4844 -24.1596 -31.5149 -42.4029 -50.7995 -51.3718 -15.9018 -41.0085 -65.9973 -52.0424 -39.9255 -22.1678 -7.89866 -47.3052 -39.6791 -15.6286 50.4102 78.6667 30.6771 164.299 -0.188726 1.65204 23.0243 42.3424 -39.549 -61.9853 0.73581 6.44737 33.3571 16.276 0.995333 2.59021 10.745 -9.42048 -26.6998 -28.9384 -21.5652 -2.65146 -4.21402 -18.9147 -4.64431 -40.0522 -94.3592 -56.1486 -41.6679 -54.0196 -73.7012 -42.4982 -53.4791 -16.041 -59.407 -90.0903 -40.3998 -55.4444 -73.4547 -84.9143 -71.2186 -52.1533 -14.6832 54.4757 63.8829 77.0015 77.3364 -30.6176 -39.4133 -41.0269 -51.2157 -23.5485 16.265 11.4959 19.6583 23.7593 50.2226 13.2496 -24.6396 12.6093 11.9999 -18.6338 -37.2163 -22.0863 -12.2729 -14.9329 -38.3118 11.7375 40.6 -46.7436 -40.2858 -24.3345 66.8221 83.7898 -19.576 -28.1931 -11.4606 -17.0259 -1.16146 -6.45739 -17.9702 26.9064 68.6485 41.7245 9.72424 -7.02219 4.63091 19.3168 6.08851 83.3213 47.4408 32.6419 5.81977 23.2107 7.9746 -18.8827 -15.6575 2.21465 13.0479 77.6292 49.4374 11.2065 -21.2301 -6.67643 56.1758 -6.34692 -37.3483 -34.8602 -27.4103 -24.2334 -46.2419 -77.986 -140.659 -119.942 -148.526 -100.213 -91.4345 -84.9437 -75.8442 -62.8617 8.45571 26.5196 29.1141 33.1577 -3.92323 -31.6604 -34.815 -38.2221 -25.5859 -3.38572 38.8507 -0.147985 31.7539 20.3529 38.4125 57.9801 4.66485 63.6926 42.4291 -14.4508 -36.0804 -40.8637 -56.6015 -34.6048 -12.9413 -1.15492 -1.22724 -30.3517 -20.5987 26.8965 23.5685 -7.9521 -6.99206 -14.1524 -31.2349 -30.2028 -41.9291 -22.3166 -8.89007 -3.04362 20.7057 65.0586 46.7901 6.48017 11.5454 12.9223 81.7463 77.2055 37.1024 -5.98784 29.2931 26.783 17.9349 23.9436 21.4318 31.1459 44.1432 71.983 -18.0012 0.528656 43.8034 41.0592 45.8291 37.1237 14.9547 -27.9737 -39.9619 -43.4452 -62.3691 -99.2528 -175.968 -185.222 -140.354 -109.265 -88.1939 -65.4374 -43.7938 38.0157 9.8306 10.6497 33.6807 51.9302 20.1966 36.1821 45.6993 -10.8699 -11.7427 -1.65793 -5.13172 44.4203 4.74194 19.2312 49.7831 129.552 298.747 118.194 49.7853 20.5403 4.39111 1.41183 2.58514 -9.89474 38.7995 57.0317 2.26947 -16.182 -8.16457 -23.4871 21.4246 8.70303 12.9291 8.29464 -0.536527 -19.2566 17.0616 30.5586 -58.0553 61.3181 59.9616 8.19871 -20.1963 -5.06441 4.36224 79.5404 110.993 83.9825 19.2595 10.814 126.589 96.4047 54.6476 7.85485 15.3256 14.3748 20.3452 73.7307 17.8311 5.55881 74.0678 70.0334 60.2704 43.287 28.3533 1.4362 -34.0986 -49.9761 -68.4797 -88.3868 -141.913 -112.18 -117.417 -108.171 -75.9598 -40.8502 -16.7628 -68.8316 -7.65684 15.6477 48.6855 36.6411 40.4734 54.1201 35.151 40.7907 106.693 43.8712 15.6829 25.3072 36.8343 42.5836 41.9972 120.788 49.9625 79.1705 44.3522 44.3563 30.2537 -8.85331 -19.2982 68.7521 34.3232 16.8905 20.1218 45.9606 30.6996 24.723 7.09998 25.829 50.9503 20.7534 7.12431 -3.88195 77.1662 9.71949 21.2765 -2.08722 -24.076 -24.5806 -7.65946 -19.9974 53.1513 141.326 64.4351 46.9349 28.7064 34.5092 83.522 72.2374 -21.4416 -38.9644 -23.916 -48.9271 34.4417 116.798 69.695 61.0006 70.1458 70.3027 71.6052 101.825 67.6716 47.2013 10.2928 -9.84852 -16.3176 -47.4276 -48.2369 -101.682 -155.387 -223.014 -156.873 -78.5972 -91.6327 -29.5256 -46.9289 -60.5048 -29.6621 -4.05315 20.9525 55.0777 49.6533 102.851 28.0834 3.2883 45.2755 57.2819 69.9769 67.4549 85.4687 85.788 73.7847 32.8332 24.0368 8.2124 -20.2865 -46.6423 4.17462 1.59147 15.4762 17.016 11.1761 -12.8846 -13.4481 26.501 20.8547 3.78535 0.864545 15.7141 109.595 143.108 115.175 -12.4951 -76.9385 -39.6136 -49.2997 10.7718 -3.591 71.0596 101.882 41.3719 78.0567 38.2133 -19.982 -3.85947 -7.0938 -43.5135 -42.4777 27.8371 25.8762 45.1336 174.769 4.04438 123.613 213.422 159.437 164.984 130.538 130.697 110.93 52.8099 37.855 16.2877 11.3553 -7.48829 -66.27 -181.454 -378.539 -259.998 -117.619 -69.1849 -30.0353 -74.111 -80.4958 -58.3862 -39.739 -48.4672 -46.5735 -26.2846 -8.92303 -31.9545 -48.5716 133.893 156.592 103.138 119.574 110.928 114.379 95.2951 89.3426 81.0881 12.2858 -8.34886 -17.0246 10.0498 6.59334 -4.26718 21.882 10.7802 18.4243 -3.53123 22.367 14.1179 46.9989 40.0923 39.9396 152.235 131.732 3.37178 -26.4051 11.4779 36.9013 -34.2742 -11.7376 56.7789 82.9346 24.4222 11.5535 68.2047 17.0489 -23.6253 -29.1039 -42.5192 -44.4822 -43.313 286.402 208.425 124.019 282.114 178.672 277.078 522.631 238.401 236.878 205.177 193.313 188.328 158.905 82.3948 30.5864 34.7633 21.5933 17.1099 -26.5109 -181.607 -221.435 -154.407 -94.4041 -66.0486 2.06469 -60.9855 -87.0145 -87.9697 -91.0991 -94.7771 -77.0384 -67.367 -43.0432 3.28285 147.104 305.034 229.054 116.028 54.3527 73.278 97.0911 124.057 18.7167 35.9246 17.1803 -10.0278 -3.31946 -8.7982 -10.3566 26.363 1.3988 6.08494 3.35684 -1.78238 23.586 63.3936 40.841 14.2532 11.8855 3.65052 23.8544 76.669 93.577 64.5252 15.2463 -35.6324 23.2782 77.2689 46.0456 35.3848 28.2024 -17.9654 -30.338 -31.1413 -42.866 -50.0926 -71.1743 244.19 135.973 151.062 315.531 106.682 155.084 265.846 249.346 271.88 278.141 236.765 243.77 241.793 271.971 135.795 77.1228 50.081 56.5957 -11.2479 -7.29577 -121.55 -140.241 -163.776 -93.2053 -1.57424 -17.7497 -71.6603 -85.1753 -109.095 -112.431 -98.4192 -78.9038 -26.086 59.0387 152.137 78.3582 18.5831 126.54 56.1946 30.6388 87.7022 106.529 69.5904 147.92 45.9402 0.639784 -7.73843 27.9532 61.2137 23.7334 -3.82913 4.16774 9.97645 18.9614 16.6063 15.3613 15.3258 6.4591 -5.11479 -7.37598 -14.8022 173.18 219.912 64.3433 -18.7421 5.89124 39.3396 79.1973 178.888 8.58282 3.13901 30.042 -3.22379 -24.066 -1.85144 -0.519848 -0.713742 126.425 79.3956 56.3738 195.096 178.134 110.604 89.9588 36.9189 38.3371 112.246 126.738 181.182 237.961 306.598 355.468 351.823 212.484 158.502 107.198 22.9632 -7.90789 -42.1787 -108.544 -61.2345 35.3082 -15.5129 -55.4079 -60.1907 -93.4514 -102.964 -68.8934 -29.765 10.9112 104.829 165.576 51.3926 -29.5933 1.30384 221.137 88.7066 133.296 162.267 84.9994 58.9016 48.0408 38.1828 9.40912 19.4856 62.0792 33.4592 19.954 5.47217 7.72258 12.3325 17.2294 10.0228 5.79634 19.6279 12.07 2.71233 44.8034 150.3 101.497 13.2725 5.32122 15.1767 11.3622 73.6321 108.264 -9.92591 -29.0886 21.1684 -24.3394 -51.3455 7.31756 9.44133 45.0738 36.9993 16.2057 36.8976 102.359 70.1237 25.6511 -27.0329 -54.398 -36.4793 104.896 42.9029 59.6312 102.125 196.675 267.971 328.109 420.175 318.707 198.111 137.828 80.6708 13.474 12.0664 -1.38234 11.9148 2.41094 12.7976 43.517 -10.0758 -43.7943 -0.261624 34.8682 67.0389 145.894 155.946 53.5366 -19.214 -5.85607 96.3749 41.5448 68.7245 152.222 157.95 134.259 19.1823 47.9036 32.2437 -9.1285 -14.8733 17.7504 46.1812 5.364 -22.2791 -3.86391 3.16102 1.0734 -1.79961 18.5724 6.31574 26.5818 168.995 201.735 17.9892 14.6716 -22.5005 -37.0859 44.1823 128.111 52.2525 -42.5207 17.4503 117.841 22.8085 9.05128 -2.28808 -29.6222 -12.71 10.814 8.80468 -16.7328 -12.1174 -48.591 -74.1736 -48.1709 -27.7059 30.1589 68.1305 21.0284 1.30536 20.2462 73.3207 112.032 127.547 185.386 248.311 245.312 204.211 169.216 119.207 42.5353 -11.1088 -14.4401 -46.9733 7.50886 12.3738 20.8343 63.1294 105.945 99.5013 137.268 183.57 149.555 43.0154 -0.983482 -15.5143 1.4002 -22.5608 -5.95852 57.9442 91.6835 163.653 196.561 63.2098 7.89927 -1.09115 -3.65545 34.1947 112.252 103.155 31.7243 27.196 -8.07544 5.27649 38.0179 34.8989 59.9895 50.4112 101.75 160.784 39.9086 11.8413 0.403733 38.3694 73.2894 73.4123 -9.59681 -62.7945 63.6541 91.9851 70.7332 29.5678 64.8695 123.044 95.3696 9.20523 31.8171 -38.9569 -76.4126 -104.723 -101.924 -70.1778 -40.2065 -24.5774 -31.6006 -52.807 -18.3062 -15.9517 58.4462 81.4471 79.8903 94.8229 101.759 160.724 173.982 166.427 143.992 97.2985 -7.7605 14.8706 41.6391 52.4656 3.72417 -19.5287 -26.9732 -122.64 -31.596 19.9776 107.952 107.422 31.269 10.4512 17.1079 71.9417 -56.7294 -16.9095 40.1968 80.6291 89.4037 129.104 96.5773 71.625 48.4936 65.6756 48.668 39.5189 -4.29248 -13.4264 11.5564 -14.0384 3.50572 -10.8465 13.6074 62.014 40.2533 107.644 180.053 -4.54676 -15.984 -1.92028 -10.06 -24.0747 -22.1208 -25.7505 -23.7084 24.6654 53.6328 87.945 118.143 96.2861 17.4698 3.64458 -78.6702 -61.5395 -94.8008 -109.166 -115.226 -96.1864 -81.2156 -59.5023 -29.7681 -36.0417 -13.9368 93.4392 135.544 46.7468 59.4216 82.8154 88.3789 67.6531 92.9331 127.99 139.039 140.185 73.1636 21.4188 26.741 4.81589 24.1507 23.7979 -89.8062 118.686 579.922 205.972 -123.127 -27.5236 -41.5597 -65.4954 -37.4944 -39.8772 -50.3315 -93.7012 -61.9946 -29.3161 16.486 44.0896 43.4673 92.5386 80.3867 80.0105 50.8104 108.977 113.259 28.5139 -9.63952 -8.75932 -27.1597 -22.7011 -13.1716 -9.51097 32.2219 30.312 59.7937 17.6861 -54.3862 -52.4779 -14.8066 8.29885 -55.439 -40.6376 -43.0876 -44.5063 -1.66875 45.5256 40.1957 88.7479 69.756 -8.72025 -20.5168 -23.5737 -59.5593 -135.347 -138.619 -126.63 -97.7422 -82.7225 -81.57 -74.5563 -76.4733 14.9571 -50.8037 103.064 40.0184 15.8384 56.8651 75.2711 66.5647 35.5431 73.4762 109.357 113.027 56.3154 33.35 12.7282 51.2868 57.8214 43.3829 1.49569 349.484 1197.54 517.679 -57.757 -103.003 -126.539 -111.65 -90.8244 -68.6506 -63.3089 -65.2313 -71.0176 -51.3549 -49.1402 -43.8626 -37.8886 -6.7996 49.084 51.5578 85.9572 174.235 152.601 53.0246 36.3336 8.42305 2.62952 -8.24497 -18.9917 -6.35192 28.5541 43.3815 30.2532 11.7138 -7.97842 -23.8906 68.8259 36.685 -35.2495 -21.9961 -20.8593 -47.2556 -62.8896 32.2107 23.9947 -14.0617 25.5689 27.6922 7.03324 142.21 0.48183 -85.2421 -105.136 -107.806 -96.4092 -74.4383 -69.3946 -80.6466 -81.8411 34.0041 -20.982 5.84207 37.3333 -5.81961 23.5101 51.998 56.6681 23.7437 10.1543 58.089 128.492 56.7043 13.7623 11.1231 52.5238 74.8763 41.2939 45.3676 211.823 659.209 404.384 13.7997 -93.0257 -89.3844 -59.1536 -74.5862 -117.578 -109.826 -91.9475 -100.803 -64.2624 -46.1228 -6.51489 -18.6643 -24.0978 -10.8304 46.3859 1.27328 42.4337 106.649 108.499 51.2225 68.8026 39.4395 -3.07034 -42.1632 -9.672 0.506897 25.5879 35.139 7.76054 -17.6169 11.5842 51.9311 -35.8769 -43.0329 -28.2725 51.9389 39.244 -35.8303 19.491 -11.0895 -27.8702 -13.3443 -3.15967 -1.98457 -10.9649 -53.6505 -70.7508 -57.6069 -47.5451 -54.2186 -53.6365 -59.1918 -88.129 -134.193 -150.522 -36.056 -60.8746 8.0813 10.502 -2.6907 12.0894 25.4911 10.2237 -28.9491 -38.8082 41.4369 44.7328 -26.1645 0.0402314 1.42247 24.4996 58.431 53.327 46.8912 230.673 214.53 60.9992 -28.7172 -0.469076 56.4827 -27.9683 -113.173 -156.077 -146.466 -118.628 -90.1093 46.6526 27.3382 -58.4445 -68.6023 -50.0887 -24.0092 -27.1717 -40.2962 -14.0588 43.9798 77.9456 79.7874 10.7071 -40.3951 2.13896 -4.56919 6.72592 18.3918 -19.7989 -40.7876 -42.3304 9.82883 21.2498 2.15328 -32.2682 53.8353 60.9256 41.329 -40.525 -34.1389 -11.6711 -46.5087 -44.079 -28.2903 -12.7553 -61.9192 -78.5453 -77.827 -56.5797 -35.7586 -39.6984 -27.6343 -47.9578 -85.1916 -147.7 -224.336 41.1566 -73.9838 -47.8052 -0.203353 3.5382 -13.7742 19.415 40.1043 9.26074 -41.7511 -46.789 -0.928304 -29.8279 -62.5382 -43.5489 -11.7997 10.8814 0.814612 23.0359 159.774 227.921 130.437 -6.38868 -7.50163 37.7739 42.2881 -34.9478 -142.745 -156.671 -181.891 -109.084 -75.9203 -75.4968 -45.5126 -68.6197 -46.4411 10.3029 -44.5281 -26.3336 -16.7412 -5.89579 38.1281 139.444 57.5155 -0.187233 2.35847 -16.1136 7.33213 -51.1493 -74.689 0.928175 -40.8642 13.7704 32.5293 -4.63008 31.2559 15.6609 34.1119 61.3002 5.21372 24.8399 40.5363 -13.4329 -9.20089 -31.5977 -24.1836 -59.4432 -88.1606 -80.1975 -71.9879 -53.1137 -35.1301 -44.1009 -48.9866 -85.0567 -128.358 -137.369 -99.144 -75.7957 -67.0695 -40.471 -38.8829 -33.9333 -2.36787 51.8591 34.0824 2.45025 -52.1854 -60.6549 -16.1059 -58.4266 -55.6276 -26.6137 -30.4337 26.4467 127.413 139.261 182.456 130.91 -30.0407 -41.2847 25.4917 160.465 4.35799 -33.7231 42.9873 -166.526 -129.252 -89.1696 -99.8597 -54.5718 -5.17396 -63.1309 -35.509 -42.6396 -61.1453 -30.6085 2.50652 -8.31156 0.