# vtk DataFile Version 2.0
3D Data
ASCII
DATASET UNSTRUCTURED_GRID
POINTS 4466 double 
-322951 1.56583e+06 -2547.97
-313165 1.56583e+06 -2602.17
-303379 1.56583e+06 -2637.32
-293592 1.56583e+06 -2686.47
-283806 1.56583e+06 -2764.9
-274019 1.56583e+06 -2838.41
-264233 1.56583e+06 -2850.64
-254447 1.56583e+06 -2871.57
-244660 1.56583e+06 -2881.6
-234874 1.56583e+06 -2891.49
-225087 1.56583e+06 -2949.29
-215301 1.56583e+06 -2972.05
-205515 1.56583e+06 -2984.69
-195728 1.56583e+06 -3015.27
-185942 1.56583e+06 -3019.06
-176155 1.56583e+06 -3026.33
-166369 1.56583e+06 -3060.46
-156583 1.56583e+06 -3072.83
-146796 1.56583e+06 -3086.91
-137010 1.56583e+06 -3086.35
-127223 1.56583e+06 -3110.01
-117437 1.56583e+06 -3119.61
-107650 1.56583e+06 -3128.71
-97864.1 1.56583e+06 -3150.03
-88077.7 1.56583e+06 -3164.17
-78291.3 1.56583e+06 -3178.78
-68504.9 1.56583e+06 -3189.48
-58718.5 1.56583e+06 -3199.6
-48932 1.56583e+06 -3223.8
-39145.6 1.56583e+06 -3244.39
-29359.2 1.56583e+06 -3275.1
-19572.8 1.56583e+06 -3296.58
-9786.41 1.56583e+06 -3309.08
0 1.56583e+06 -3320.83
9786.41 1.56583e+06 -3331.36
19572.8 1.56583e+06 -3354.22
29359.2 1.56583e+06 -3376.37
39145.6 1.56583e+06 -3393.03
48932 1.56583e+06 -3402.63
58718.5 1.56583e+06 -3419.11
68504.9 1.56583e+06 -3442.84
78291.3 1.56583e+06 -3456.65
88077.7 1.56583e+06 -3472.16
97864.1 1.56583e+06 -3489.27
107650 1.56583e+06 -3510.78
117437 1.56583e+06 -3536.9
127223 1.56583e+06 -3555.05
137010 1.56583e+06 -3567.02
146796 1.56583e+06 -3580.42
156583 1.56583e+06 -3592.57
166369 1.56583e+06 -3618.56
176155 1.56583e+06 -3637.12
185942 1.56583e+06 -3655.65
195728 1.56583e+06 -3666.73
205515 1.56583e+06 -3675.35
215301 1.56583e+06 -3690.13
225087 1.56583e+06 -3704.1
234874 1.56583e+06 -3722.66
244660 1.56583e+06 -3740.58
254447 1.56583e+06 -3760.52
264233 1.56583e+06 -3775.29
274019 1.56583e+06 -3783.85
283806 1.56583e+06 -3804.56
293592 1.56583e+06 -3814.83
303379 1.56583e+06 -3828.03
313165 1.56583e+06 -3842.02
322951 1.56583e+06 -3845.95
332738 1.56583e+06 -3864.74
342524 1.56583e+06 -3877.4
352311 1.56583e+06 -3883.57
362097 1.56583e+06 -3893.29
371884 1.56583e+06 -3907.73
381670 1.56583e+06 -3912.61
391456 1.56583e+06 -3924.46
401243 1.56583e+06 -3940.49
411029 1.56583e+06 -3948.83
420816 1.56583e+06 -3952.82
-322951 1.57561e+06 -2561.92
-313165 1.57561e+06 -2623.46
-303379 1.57561e+06 -2652.71
-293592 1.57561e+06 -2707.28
-283806 1.57561e+06 -2807.85
-274019 1.57561e+06 -2864.78
-264233 1.57561e+06 -2884.22
-254447 1.57561e+06 -2871
-244660 1.57561e+06 -2887.87
-234874 1.57561e+06 -2936.19
-225087 1.57561e+06 -2979.01
-215301 1.57561e+06 -2990.74
-205515 1.57561e+06 -2985.5
-195728 1.57561e+06 -3035.11
-185942 1.57561e+06 -3028.19
-176155 1.57561e+06 -3044.84
-166369 1.57561e+06 -3071.47
-156583 1.57561e+06 -3083
-146796 1.57561e+06 -3095.08
-137010 1.57561e+06 -3108.42
-127223 1.57561e+06 -3123.45
-117437 1.57561e+06 -3145.19
-107650 1.57561e+06 -3156.15
-97864.1 1.57561e+06 -3167.34
-88077.7 1.57561e+06 -3173.84
-78291.3 1.57561e+06 -3187.35
-68504.9 1.57561e+06 -3199.21
-58718.5 1.57561e+06 -3216.35
-48932 1.57561e+06 -3227.27
-39145.6 1.57561e+06 -3245.77
-29359.2 1.57561e+06 -3279.92
-19572.8 1.57561e+06 -3303.04
-9786.41 1.57561e+06 -3322.04
0 1.57561e+06 -3332.39
9786.41 1.57561e+06 -3350.18
19572.8 1.57561e+06 -3366.15
29359.2 1.57561e+06 -3383.69
39145.6 1.57561e+06 -3397.38
48932 1.57561e+06 -3410.52
58718.5 1.57561e+06 -3426.44
68504.9 1.57561e+06 -3452.51
78291.3 1.57561e+06 -3469.63
88077.7 1.57561e+06 -3484.77
97864.1 1.57561e+06 -3497.25
107650 1.57561e+06 -3519.47
117437 1.57561e+06 -3538.87
127223 1.57561e+06 -3544.31
137010 1.57561e+06 -3576.64
146796 1.57561e+06 -3589.92
156583 1.57561e+06 -3605.78
166369 1.57561e+06 -3616.51
176155 1.57561e+06 -3634.62
185942 1.57561e+06 -3658.46
195728 1.57561e+06 -3666.79
205515 1.57561e+06 -3686.74
215301 1.57561e+06 -3701.3
225087 1.57561e+06 -3711.87
234874 1.57561e+06 -3731.49
244660 1.57561e+06 -3746.19
254447 1.57561e+06 -3759.45
264233 1.57561e+06 -3777.85
274019 1.57561e+06 -3787.65
283806 1.57561e+06 -3805.73
293592 1.57561e+06 -3822.95
303379 1.57561e+06 -3827.76
313165 1.57561e+06 -3844.33
322951 1.57561e+06 -3852.51
332738 1.57561e+06 -3868.06
342524 1.57561e+06 -3887.05
352311 1.57561e+06 -3888.88
362097 1.57561e+06 -3897.29
371884 1.57561e+06 -3909.61
381670 1.57561e+06 -3917.67
391456 1.57561e+06 -3927.28
401243 1.57561e+06 -3938.24
411029 1.57561e+06 -3953
420816 1.57561e+06 -3954
-322951 1.5854e+06 -2672.8
-313165 1.5854e+06 -2658.26
-303379 1.5854e+06 -2703.45
-293592 1.5854e+06 -2764.83
-283806 1.5854e+06 -2847.27
-274019 1.5854e+06 -2896.77
-264233 1.5854e+06 -2894.56
-254447 1.5854e+06 -2883.57
-244660 1.5854e+06 -2920.03
-234874 1.5854e+06 -2969.8
-225087 1.5854e+06 -3004.97
-215301 1.5854e+06 -3010.1
-205515 1.5854e+06 -3019.94
-195728 1.5854e+06 -3058.61
-185942 1.5854e+06 -3063.28
-176155 1.5854e+06 -3068.69
-166369 1.5854e+06 -3094.81
-156583 1.5854e+06 -3104.45
-146796 1.5854e+06 -3126.8
-137010 1.5854e+06 -3140.17
-127223 1.5854e+06 -3146.78
-117437 1.5854e+06 -3153.07
-107650 1.5854e+06 -3170.16
-97864.1 1.5854e+06 -3177.55
-88077.7 1.5854e+06 -3192.64
-78291.3 1.5854e+06 -3201.84
-68504.9 1.5854e+06 -3216.69
-58718.5 1.5854e+06 -3226.56
-48932 1.5854e+06 -3236.07
-39145.6 1.5854e+06 -3260.59
-29359.2 1.5854e+06 -3281.96
-19572.8 1.5854e+06 -3312.65
-9786.41 1.5854e+06 -3333.22
0 1.5854e+06 -3333.8
9786.41 1.5854e+06 -3361.18
19572.8 1.5854e+06 -3369.12
29359.2 1.5854e+06 -3392.27
39145.6 1.5854e+06 -3407.94
48932 1.5854e+06 -3422.26
58718.5 1.5854e+06 -3432.55
68504.9 1.5854e+06 -3456.01
78291.3 1.5854e+06 -3478.29
88077.7 1.5854e+06 -3488.16
97864.1 1.5854e+06 -3498.38
107650 1.5854e+06 -3519.3
117437 1.5854e+06 -3531.44
127223 1.5854e+06 -3552.83
137010 1.5854e+06 -3584.6
146796 1.5854e+06 -3597.39
156583 1.5854e+06 -3614.98
166369 1.5854e+06 -3617.53
176155 1.5854e+06 -3643.47
185942 1.5854e+06 -3667.94
195728 1.5854e+06 -3672.91
205515 1.5854e+06 -3691.91
215301 1.5854e+06 -3696.3
225087 1.5854e+06 -3715.17
234874 1.5854e+06 -3729.75
244660 1.5854e+06 -3752.85
254447 1.5854e+06 -3761.84
264233 1.5854e+06 -3778.61
274019 1.5854e+06 -3803.03
283806 1.5854e+06 -3811.61
293592 1.5854e+06 -3827.59
303379 1.5854e+06 -3835.63
313165 1.5854e+06 -3846.17
322951 1.5854e+06 -3857.92
332738 1.5854e+06 -3872.74
342524 1.5854e+06 -3883.65
352311 1.5854e+06 -3895.71
362097 1.5854e+06 -3899.5
371884 1.5854e+06 -3911.88
381670 1.5854e+06 -3922.07
391456 1.5854e+06 -3929.46
401243 1.5854e+06 -3945
411029 1.5854e+06 -3951.02
420816 1.5854e+06 -3954.82
-322951 1.59518e+06 -2694.59
-313165 1.59518e+06 -2714.27
-303379 1.59518e+06 -2792.17
-293592 1.59518e+06 -2835.82
-283806 1.59518e+06 -2923.23
-274019 1.59518e+06 -2932.61
-264233 1.59518e+06 -2909.92
-254447 1.59518e+06 -2927.93
-244660 1.59518e+06 -2956.78
-234874 1.59518e+06 -3019.4
-225087 1.59518e+06 -3024.82
-215301 1.59518e+06 -3047.25
-205515 1.59518e+06 -3055.19
-195728 1.59518e+06 -3083.64
-185942 1.59518e+06 -3070.55
-176155 1.59518e+06 -3106.03
-166369 1.59518e+06 -3109.85
-156583 1.59518e+06 -3109.95
-146796 1.59518e+06 -3124.37
-137010 1.59518e+06 -3146.97
-127223 1.59518e+06 -3161.03
-117437 1.59518e+06 -3177.05
-107650 1.59518e+06 -3189.07
-97864.1 1.59518e+06 -3197.66
-88077.7 1.59518e+06 -3205.25
-78291.3 1.59518e+06 -3216.13
-68504.9 1.59518e+06 -3224.37
-58718.5 1.59518e+06 -3232.78
-48932 1.59518e+06 -3238.59
-39145.6 1.59518e+06 -3270.44
-29359.2 1.59518e+06 -3295.47
-19572.8 1.59518e+06 -3324.47
-9786.41 1.59518e+06 -3339.17
0 1.59518e+06 -3349
9786.41 1.59518e+06 -3365.76
19572.8 1.59518e+06 -3380.15
29359.2 1.59518e+06 -3395.38
39145.6 1.59518e+06 -3412.63
48932 1.59518e+06 -3426.69
58718.5 1.59518e+06 -3440.72
68504.9 1.59518e+06 -3460.02
78291.3 1.59518e+06 -3483.24
88077.7 1.59518e+06 -3491.26
97864.1 1.59518e+06 -3502.02
107650 1.59518e+06 -3524.3
117437 1.59518e+06 -3540.81
127223 1.59518e+06 -3559.44
137010 1.59518e+06 -3585.4
146796 1.59518e+06 -3609.98
156583 1.59518e+06 -3622.58
166369 1.59518e+06 -3625.67
176155 1.59518e+06 -3638.5
185942 1.59518e+06 -3665.76
195728 1.59518e+06 -3682.55
205515 1.59518e+06 -3699.51
215301 1.59518e+06 -3705.36
225087 1.59518e+06 -3715.29
234874 1.59518e+06 -3735.81
244660 1.59518e+06 -3756.98
254447 1.59518e+06 -3769.55
264233 1.59518e+06 -3781.65
274019 1.59518e+06 -3800.02
283806 1.59518e+06 -3818.59
293592 1.59518e+06 -3824.48
303379 1.59518e+06 -3839.18
313165 1.59518e+06 -3851.17
322951 1.59518e+06 -3862.14
332738 1.59518e+06 -3871.32
342524 1.59518e+06 -3884.52
352311 1.59518e+06 -3896.56
362097 1.59518e+06 -3904.26
371884 1.59518e+06 -3914.07
381670 1.59518e+06 -3924.22
391456 1.59518e+06 -3934.64
401243 1.59518e+06 -3942
411029 1.59518e+06 -3944.82
420816 1.59518e+06 -3952.82
-322951 1.60497e+06 -2621.23
-313165 1.60497e+06 -2755.22
-303379 1.60497e+06 -2897.66
-293592 1.60497e+06 -2968.33
-283806 1.60497e+06 -2976.52
-274019 1.60497e+06 -2950.94
-264233 1.60497e+06 -2948.88
-254447 1.60497e+06 -2966.42
-244660 1.60497e+06 -3010.7
-234874 1.60497e+06 -3060.52
-225087 1.60497e+06 -3071.94
-215301 1.60497e+06 -3070.61
-205515 1.60497e+06 -3081.38
-195728 1.60497e+06 -3104.73
-185942 1.60497e+06 -3098.88
-176155 1.60497e+06 -3115.47
-166369 1.60497e+06 -3131.31
-156583 1.60497e+06 -3143.32
-146796 1.60497e+06 -3153.51
-137010 1.60497e+06 -3173.86
-127223 1.60497e+06 -3183.91
-117437 1.60497e+06 -3185.07
-107650 1.60497e+06 -3191.34
-97864.1 1.60497e+06 -3200.13
-88077.7 1.60497e+06 -3205.89
-78291.3 1.60497e+06 -3220.71
-68504.9 1.60497e+06 -3234.44
-58718.5 1.60497e+06 -3247.22
-48932 1.60497e+06 -3268.08
-39145.6 1.60497e+06 -3292.48
-29359.2 1.60497e+06 -3313.6
-19572.8 1.60497e+06 -3335.24
-9786.41 1.60497e+06 -3343
0 1.60497e+06 -3357.97
9786.41 1.60497e+06 -3376.54
19572.8 1.60497e+06 -3389.57
29359.2 1.60497e+06 -3402.34
39145.6 1.60497e+06 -3417.15
48932 1.60497e+06 -3428.97
58718.5 1.60497e+06 -3449.44
68504.9 1.60497e+06 -3463.51
78291.3 1.60497e+06 -3484.57
[...]
POINT_DATA 4466
SCALARS grav_accel double
LOOKUP_TABLE default
4.62906e-05 6.39447e-05 8.59913e-05 0.000106687 0.000118848 0.000121467 0.00011769 0.000111575 0.000107294 0.000108375 0.000117227 0.000132326 0.000146268 0.000154804 0.00015615 0.000141948 0.000112806 8.40634e-05 6.2423e-05 4.5773e-05 3.07599e-05 1.57789e-05 2.79431e-06 -6.04108e-06 -1.25347e-05 -2.12654e-05 -3.29436e-05 -3.46082e-05 -3.1488e-05 -3.09357e-05 -3.33245e-05 -3.65824e-05 -3.77739e-05 -3.60507e-05 -3.31071e-05 -3.12695e-05 -3.27567e-05 -3.9696e-05 -5.50906e-05 -8.08243e-05 -0.000116846 -0.000165119 -0.000227267 -0.00030025 -0.00036808 -0.000404647 -0.000398682 -0.000362156 -0.000321113 -0.00028604 -0.000258775 -0.000238175 -0.000221753 -0.000214918 -0.000215979 -0.000211268 -0.000191773 -0.000164771 -0.000137885 -0.000115243 -0.000101569 -9.91864e-05 -0.000107991 -0.000124621 -0.000137142 -0.000133023 -0.00011409 -9.05604e-05 -6.88136e-05 -5.26507e-05 -4.8883e-05 -6.25164e-05 -9.54723e-05 -0.000140174 -0.000172731 -0.000176904 -0.000134358 4.24684e-05 6.26186e-05 8.85419e-05 0.000114085 0.000132098 0.000139919 0.000137502 0.000129911 0.000123326 0.000124432 0.000137204 0.000158217 0.000175164 0.00018178 0.000178437 0.000159573 0.000128492 9.82513e-05 7.48551e-05 5.6369e-05 3.86865e-05 1.76074e-05 -6.84163e-06 -2.19371e-05 -3.08252e-05 -3.84178e-05 -4.90773e-05 -5.56588e-05 -5.33126e-05 -4.75446e-05 -4.55175e-05 -4.55526e-05 -4.41213e-05 -4.00332e-05 -3.51129e-05 -3.14253e-05 -3.08749e-05 -3.62375e-05 -5.16721e-05 -7.91447e-05 -0.000117239 -0.000168509 -0.000237894 -0.000324653 -0.000411491 -0.000465135 -0.000468845 -0.000432457 -0.00038478 -0.000341769 -0.000309915 -0.000283218 -0.000256667 -0.000242041 -0.00024098 -0.000240134 -0.000222859 -0.000193399 -0.000161026 -0.000132837 -0.000115935 -0.000113476 -0.00012574 -0.000150271 -0.000172474 -0.000171586 -0.000146467 -0.00011101 -7.4649e-05 -4.10941e-05 -3.19291e-05 -5.21736e-05 -9.17774e-05 -0.000135857 -0.00016591 -0.000176361 -0.000138584 3.19415e-05 5.24193e-05 7.69625e-05 0.00010196 0.000124738 0.000140019 0.000143389 0.000138341 0.000131846 0.000133239 0.0001483 0.000170563 0.000185853 0.000189446 0.000180882 0.000160828 0.000134961 0.000109826 8.87726e-05 7.11334e-05 5.24593e-05 2.67072e-05 -6.98392e-06 -3.51885e-05 -5.07031e-05 -5.4306e-05 -5.23878e-05 -5.99919e-05 -7.16986e-05 -6.57227e-05 -5.95311e-05 -5.45215e-05 -4.85307e-05 -4.12846e-05 -3.42423e-05 -2.89078e-05 -2.66395e-05 -3.03223e-05 -4.43264e-05 -7.03365e-05 -0.00010559 -0.000152936 -0.000220574 -0.000311013 -0.000410272 -0.000485113 -0.000507036 -0.000479894 -0.000430128 -0.000383435 -0.000348336 -0.000314809 -0.000279896 -0.000254825 -0.000245837 -0.000245494 -0.000235413 -0.000210456 -0.000177094 -0.000145863 -0.000126647 -0.000123759 -0.000138356 -0.000168004 -0.000196926 -0.000202122 -0.00017586 -0.000129695 -7.73476e-05 -2.74857e-05 -1.24702e-05 -3.15561e-05 -6.27273e-05 -9.4213e-05 -0.000116171 -0.000125542 -0.000103412 1.55291e-05 3.47621e-05 5.68514e-05 8.11847e-05 0.000107088 0.000128395 0.000138368 0.000138502 0.000134315 0.000135564 0.000150895 0.000170841 0.000182565 0.000183127 0.000174074 0.000158428 0.000140949 0.000123374 0.000106578 9.00281e-05 6.87751e-05 3.7497e-05 -3.28852e-06 -4.34652e-05 -6.6592e-05 -5.93743e-05 -5.04984e-05 -5.38206e-05 -6.83006e-05 -7.73095e-05 -7.21212e-05 -6.17842e-05 -5.01885e-05 -3.9375e-05 -3.00029e-05 -2.29682e-05 -1.95367e-05 -2.19387e-05 -3.35567e-05 -5.56036e-05 -8.55294e-05 -0.0001262 -0.000187666 -0.000275043 -0.000379905 -0.00047262 -0.000517919 -0.000508548 -0.000463984 -0.000412763 -0.000368641 -0.000327397 -0.000285255 -0.00025111 -0.000233703 -0.000230002 -0.000224801 -0.000207015 -0.000177958 -0.000148168 -0.000128808 -0.00012551 -0.000141004 -0.000172054 -0.000203251 -0.000214506 -0.000192522 -0.000140489 -8.24379e-05 -3.67014e-05 -1.47215e-05 -1.61972e-05 -3.186e-05 -5.14807e-05 -6.58602e-05 -7.17707e-05 -6.04406e-05 -1.36868e-05 3.54874e-06 2.67363e-05 5.34452e-05 8.3299e-05 0.000109907 0.000126667 0.000133595 0.000131201 0.00012872 0.000143529 0.000160678 0.000168184 0.000164957 0.000156164 0.00014789 0.000142761 0.000137445 0.000127584 0.000109092 7.98444e-05 4.05113e-05 -3.83747e-06 -3.93371e-05 -5.34424e-05 -4.51231e-05 -3.68429e-05 -4.19346e-05 -5.81665e-05 -7.44995e-05 -7.46386e-05 -6.06228e-05 -4.4359e-05 -3.1192e-05 -2.01312e-05 -1.13862e-05 -6.83338e-06 -7.96331e-06 -1.69308e-05 -3.49336e-05 -6.04291e-05 -9.57081e-05 -0.000150617 -0.000230203 -0.00033141 -0.000434154 -0.000502803 -0.000516427 -0.000483114 -0.000429873 -0.000376823 -0.000325806 -0.000275428 -0.000233755 -0.000209829 -0.000201518 -0.000195648 -0.000182259 -0.000160285 -0.000136312 -0.000119712 -0.000116369 -0.000128951 -0.000155909 -0.000186323 -0.000202316 -0.000188125 -0.000137454 -7.60671e-05 -3.17425e-05 -7.04378e-06 1.09564e-08 -5.04374e-06 -1.47982e-05 -2.45545e-05 -3.02122e-05 -2.38532e-05 -7.08205e-05 -4.6608e-05 -1.62962e-05 1.38925e-05 4.60449e-05 7.68219e-05 0.000101333 0.000114741 0.000108799 9.45005e-05 0.000110169 0.000130761 0.000134736 0.00012541 0.000114411 0.000114523 0.000125973 0.000138122 0.000139041 0.000114692 7.78101e-05 3.72371e-05 -2.08499e-07 -1.98978e-05 -1.98818e-05 -1.41271e-05 -9.56175e-06 -1.87194e-05 -3.62101e-05 -5.59008e-05 -6.18124e-05 -4.60584e-05 -2.56467e-05 -1.08721e-05 5.25926e-07 9.65899e-06 1.45288e-05 1.42065e-05 6.8748e-06 -9.54017e-06 -3.40568e-05 -6.77215e-05 -0.000117503 -0.000187947 -0.000279575 -0.000381991 -0.000464854 -0.000498244 -0.000479304 -0.000431233 -0.00037504 -0.000316669 -0.000258112 -0.000209031 -0.000178677 -0.000165209 -0.000156348 -0.000144989 -0.00012991 -0.000113214 -0.00010095 -9.79384e-05 -0.000106384 -0.000125863 -0.00014998 -0.000164713 -0.000156825 -0.000117349 -5.67777e-05 -1.44549e-05 8.97818e-06 1.89514e-05 2.1251e-05 1.99251e-05 1.45394e-05 8.25497e-06 1.08187e-05 -0.000118973 -9.98723e-05 -6.79167e-05 -4.03693e-05 -9.78418e-06 2.47052e-05 5.48303e-05 7.21336e-05 6.28902e-05 4.67868e-05 5.25124e-05 5.76848e-05 5.31222e-05 4.47314e-05 3.99874e-05 4.94801e-05 7.58355e-05 0.000102292 0.000114013 9.50517e-05 6.66123e-05 3.96036e-05 2.28671e-05 2.6762e-05 3.6123e-05 3.73784e-05 2.96718e-05 1.51654e-05 -6.88404e-07 -1.53877e-05 -2.26681e-05 -1.26485e-05 1.05457e-05 2.7196e-05 3.67988e-05 4.27463e-05 4.52542e-05 4.37855e-05 3.57551e-05 1.77373e-05 -8.93241e-06 -4.40349e-05 -9.1091e-05 -0.000153476 -0.000234331 -0.000328749 -0.000412903 -0.000458251 -0.000456088 -0.000420829 -0.000368147 -0.00030528 -0.000239192 -0.000182577 -0.000144939 -0.000125692 -0.000114551 -0.000105131 -9.53412e-05 -8.4345e-05 -7.55214e-05 -7.20879e-05 -7.57868e-05 -8.67163e-05 -0.000101369 -0.000110193 -0.000101506 -6.78716e-05 -2.26043e-05 1.14809e-05 3.17672e-05 4.3013e-05 5.18554e-05 5.95276e-05 6.11177e-05 5.61735e-05 5.19605e-05 -0.000151113 -0.000139153 -0.000114718 -9.5802e-05 -6.98772e-05 -3.24642e-05 7.3661e-07 1.92494e-05 2.20401e-05 1.41418e-05 -7.96916e-07 -2.02142e-05 -3.85984e-05 -5.15324e-05 -5.32544e-05 -3.62404e-05 -3.28456e-06 3.1063e-05 5.37884e-05 6.11686e-05 5.91661e-05 5.8887e-05 7.26281e-05 9.87595e-05 0.000111114 9.95639e-05 7.68818e-05 5.6432e-05 4.38844e-05 3.94508e-05 4.10657e-05 5.03903e-05 6.76279e-05 8.0215e-05 8.44073e-05 8.38941e-05 8.14209e-05 7.63233e-05 6.46456e-05 4.34672e-05 1.43859e-05 -2.20421e-05 -6.76165e-05 -0.000124287 -0.000195887 -0.000279598 -0.00035764 -0.000408386 -0.000422573 -0.000403872 -0.00035866 -0.000292985 -0.000219997 -0.000157051 -0.000113269 -8.87987e-05 -7.62781e-05 -6.8678e-05 -6.17704e-05 -5.36774e-05 -4.59396e-05 -4.06474e-05 -3.9492e-05 -4.26731e-05 -4.82762e-05 -5.0688e-05 -4.11113e-05 -1.59064e-05 1.60783e-05 4.30398e-05 6.15144e-05 7.53292e-05 9.17157e-05 0.000110211 0.000121137 0.000117928 0.000105371 -0.000177442 -0.000162684 -0.000144326 -0.000129789 -0.000108696 -7.24083e-05 -3.76081e-05 -1.539e-05 -5.66813e-06 -1.10835e-05 -4.02385e-05 -8.24e-05 -0.000116889 -0.000140662 -0.000152798 -0.000140144 -9.50037e-05 -4.6508e-05 -2.60072e-06 3.369e-05 6.26455e-05 9.39482e-05 0.000139774 0.000181662 0.000192806 0.000172365 0.000134695 0.000105552 9.40685e-05 9.72993e-05 0.000107565 0.000119435 0.000129924 0.000135025 0.000132994 0.000126503 0.000118661 0.000108631 9.23143e-05 6.80068e-05 3.76247e-05 1.46074e-06 -4.19174e-05 -9.39439e-05 -0.00015773 -0.000230447 -0.000299171 -0.000350984 -0.000377772 -0.000375597 -0.000341473 -0.000277327 -0.00020041 -0.000133183 -8.55576e-05 -5.78811e-05 -4.43922e-05 -3.77108e-05 -3.15676e-05 -2.3728e-05 -1.50655e-05 -7.28236e-06 -1.61719e-06 1.54689e-06 2.02789e-06 3.08993e-06 1.14764e-05 3.07832e-05 5.64445e-05 8.04227e-05 9.94978e-05 0.000117758 0.000143156 0.000175159 0.000199324 0.000198762 0.000174511 -0.000188233 -0.000187365 -0.000168265 -0.000154007 -0.000135902 -0.000100846 -6.49473e-05 -3.93922e-05 -2.0721e-05 -1.68937e-05 -4.74098e-05 -9.72292e-05 -0.00014245 -0.000180565 -0.000210158 -0.00021802 -0.000180998 -0.000124023 -5.58192e-05 1.39428e-05 7.82797e-05 0.000138228 0.000204198 0.000249683 0.000255166 0.000238078 0.000205511 0.000169977 0.000154982 0.000159296 0.000171285 0.000181042 0.000186216 0.000187101 0.000181402 0.000169957 0.000155865 0.000139599 0.000119113 9.32993e-05 6.29245e-05 2.82491e-05 -1.1523e-05 -5.79031e-05 -0.000113445 -0.00017476 -0.000232595 -0.000280954 -0.000314137 -0.000325465 -0.00030635 -0.000252398 -0.000178372 -0.000109966 -6.10743e-05 -3.24725e-05 -1.85332e-05 -1.10768e-05 -4.72804e-06 4.37125e-06 1.48564e-05 2.51815e-05 3.54687e-05 4.49107e-05 4.98848e-05 5.24371e-05 6.02751e-05 7.77944e-05 0.000101904 0.000125728 0.000146631 0.000169114 0.000201572 0.000245259 0.00028363 0.000289375 0.000253391 -0.000177998 -0.000197501 -0.000190668 -0.000185103 -0.000168496 -0.000130759 -9.18106e-05 -6.46878e-05 -4.458e-05 -3.17159e-05 -4.16022e-05 -7.37644e-05 -0.000113807 -0.000160559 -0.0002051 -0.000236324 -0.000220835 -0.000164496 -8.03696e-05 1.45353e-05 0.000109614 0.000187256 0.00025315 0.000290348 0.000295104 0.000282655 0.000260454 0.000236799 0.000223207 0.000226074 0.000235883 0.000239288 0.00023818 0.000238922 0.000233833 0.000218156 0.000195693 0.000170894 0.000146629 0.000121031 9.16578e-05 5.8674e-05 2.34022e-05 -1.56823e-05 -6.18548e-05 -0.000112427 -0.000160378 -0.000202143 -0.000234895 -0.000253209 -0.000248027 -0.000210697 -0.000148325 -8.50272e-05 -3.86118e-05 -8.73612e-06 4.59241e-06 1.3732e-05 2.13498e-05 3.10253e-05 4.32929e-05 5.73618e-05 7.41158e-05 9.17859e-05 0.000102299 0.00010554 0.000112763 0.000129938 0.000154472 0.000179492 0.000201603 0.000224111 0.000256018 0.000300245 0.000342891 0.000356153 0.000317414 -0.000139987 -0.000178596 -0.000204981 -0.000217366 -0.000201194 -0.000158392 -0.000118567 -9.36536e-05 -7.31728e-05 -5.11988e-05 -4.23803e-05 -5.10914e-05 -7.37521e-05 -0.000111487 -0.000159738 -0.000196561 -0.000192426 -0.000142809 -5.62558e-05 4.74011e-05 0.000154283 0.000234742 0.000284518 0.000316574 0.00032807 0.00032899 0.000312535 0.000291294 0.000284101 0.000289485 0.000299918 0.000298908 0.0002879 0.000290867 0.00029191 0.000276061 0.000242916 0.000205526 0.000176137 0.000150214 0.000121958 9.1603e-05 6.23595e-05 3.14196e-05 -7.9879e-06 -5.28203e-05 -9.43355e-05 -0.000129385 -0.000156884 -0.00017404 -0.000174077 -0.000149812 -0.000104326 -5.4585e-05 -1.61416e-05 1.15165e-05 2.5916e-05 3.7136e-05 4.50622e-05 5.56065e-05 7.09831e-05 9.13081e-05 0.000117524 0.000147376 0.000166231 0.000168678 0.000173793 0.000188881 0.000212403 0.000237771 0.000259772 0.000276192 0.000299257 0.000331973 0.000366009 0.000380859 0.000347375 -8.96917e-05 -0.000155325 -0.000222435 -0.000262481 -0.000233613 -0.000179935 -0.000143001 -0.000125808 -0.000105308 -7.33213e-05 -5.06894e-05 -4.40247e-05 -4.98858e-05 -7.4242e-05 -0.000106191 -0.000127275 -0.000121033 -7.89725e-05 -4.09463e-06 9.29269e-05 0.0001962 0.00026712 0.000304702 0.000334738 0.000348634 0.000348589 0.00033625 0.000326531 0.000327235 0.000333376 0.000337182 0.000335 0.000335472 0.000349558 0.00036007 0.000347592 0.000296278 0.000240832 0.000203409 0.000174768 0.000148223 0.000123244 0.000101455 7.76067e-05 3.97963e-05 -4.34148e-06 -4.30498e-05 -7.36571e-05 -9.43166e-05 -0.000105529 -0.000103502 -8.34287e-05 -5.22395e-05 -1.91916e-05 8.15925e-06 3.05216e-05 4.75883e-05 6.06544e-05 6.81482e-05 7.83096e-05 9.86681e-05 0.00012704 0.000163061 0.000203759 0.00023102 0.000238568 0.000243943 0.000253929 0.000270327 0.00029091 0.000307868 0.000318225 0.00033123 0.000348206 0.000365801 0.000373816 0.000347064 -6.6515e-05 -0.000136694 -0.000229402 -0.000294458 -0.00025661 -0.000192625 -0.000164236 -0.000157827 -0.000136449 -9.91326e-05 -7.11361e-05 -5.70471e-05 -5.24375e-05 -6.31459e-05 -7.59431e-05 -7.63736e-05 -5.74718e-05 -1.59557e-05 4.64346e-05 0.000126382 0.000212282 0.00027202 0.000305112 0.000336081 0.000355397 0.000362667 0.000353657 0.00034934 0.000351397 0.000356082 0.000359958 0.000367141 0.000385458 0.000411468 0.000426918 0.00040881 0.000342072 0.000267226 0.000217257 0.000186141 0.000164535 0.000148739 0.000132647 0.000107743 7.02603e-05 2.93764e-05 -6.77077e-06 -3.45878e-05 -4.9441e-05 -5.63978e-05 -5.14343e-05 -2.73789e-05 -1.88466e-06 2.01532e-05 3.9591e-05 5.83305e-05 7.513e-05 8.78996e-05 9.64025e-05 0.000105883 0.000128843 0.000163709 0.00020332 0.000246198 0.000282831 0.000305346 0.000317513 0.000321644 0.00032407 0.000334358 0.000344852 0.000350113 0.000354616 0.000357486 0.000359444 0.00035823 0.000334751 -7.35443e-05 -0.000134493 -0.000225171 -0.000286914 -0.000248687 -0.000190976 -0.00018266 -0.000187205 -0.000165113 -0.000127582 -0.000101497 -8.8563e-05 -8.11246e-05 -8.15346e-05 -8.09027e-05 -5.87597e-05 -1.66154e-05 3.56828e-05 9.16156e-05 0.000150628 0.000207655 0.000247631 0.000276115 0.000309028 0.000338053 0.000354767 0.000358496 0.000360291 0.000362759 0.000369654 0.000383201 0.000405572 0.00043649 0.000464062 0.000474153 0.000445 0.0003671 0.000282026 0.000218367 0.000185651 0.000172187 0.00016706 0.000156895 0.000129272 8.9012e-05 5.11812e-05 1.98406e-05 -2.54251e-06 -1.33462e-05 -1.39554e-05 -1.84493e-06 2.38261e-05 4.75699e-05 6.5184e-05 8.08963e-05 9.73393e-05 0.000112847 0.000125177 0.000133773 0.000143428 0.000166595 0.000204234 0.000244072 0.000282786 0.000323857 0.000357235 0.000377271 0.000379676 0.000369661 0.000368901 0.000373864 0.000375073 0.000373652 0.000365883 0.000356938 0.000348708 0.000324541 -8.61503e-05 -0.00014336 -0.000226276 -0.000265762 -0.000231774 -0.000196873 -0.00020411 -0.000215632 -0.000187321 -0.000150491 -0.000132946 -0.000130312 -0.000132521 -0.000138011 -0.000126967 -7.32583e-05 1.15338e-05 8.91468e-05 0.000144532 0.000178186 0.000198142 0.000210733 0.000231104 0.000265906 0.000303717 0.000331761 0.000350154 0.000364672 0.000372768 0.000385467 0.000411721 0.000447735 0.000478004 0.000497078 0.000498495 0.000460755 0.00038162 0.000292303 0.000208617 0.00018075 0.000181081 0.000181956 0.000172349 0.00014325 0.000103955 6.78754e-05 4.01675e-05 2.46204e-05 2.00603e-05 2.70207e-05 4.6275e-05 7.39856e-05 9.86172e-05 0.000116791 0.000132121 0.000147837 0.000162292 0.00017493 0.000183136 0.000186111 0.000205593 0.000247683 0.000279097 0.000311787 0.000350062 0.000385237 0.00040994 0.000416651 0.000402676 0.00039173 0.000391535 0.000393118 0.000394154 0.000377659 0.00035898 0.000344596 0.000317917 -9.71955e-05 -0.00014996 -0.000210609 -0.000227141 -0.000202367 -0.000193151 -0.000218175 -0.000229739 -0.000185748 -0.000146492 -0.000141579 -0.000160554 -0.000187517 -0.000209289 -0.000189286 -9.96599e-05 3.67424e-05 0.000151577 0.000212716 0.000217963 0.000195626 0.000182316 0.000189929 0.000223858 0.000266423 0.000307613 0.000341612 0.000373566 0.000393667 0.000413903 0.000445831 0.000480315 0.000494796 0.000503722 0.000500465 0.000460404 0.000380818 0.000295069 0.000217129 0.000198664 0.000205632 0.000205965 0.000192035 0.00016063 0.000122229 8.64209e-05 6.13221e-05 5.38878e-05 5.51458e-05 6.68492e-05 8.96983e-05 0.000119613 0.000148316 0.000171023 0.00018818 0.000205655 0.000219894 0.000235831 0.000246266 0.000245576 0.00025034 0.000276399 0.000306874 0.000336263 0.000367353 0.000396796 0.00041983 0.000429849 0.000419932 0.000401712 0.000397355 0.000394154 0.000390049 0.000377886 0.000358712 0.000343543 0.000314951 -9.64396e-05 -0.000133276 -0.000157556 -0.000151987 -0.000136023 -0.000144814 -0.000178296 -0.000186406 -0.000139274 -0.00010463 -0.000109195 -0.000151886 -0.000214011 -0.000257699 -0.000232143 -0.000106153 6.6067e-05 0.000205748 0.000274118 0.00026314 0.000211513 0.000175323 0.000169835 0.000195576 0.000235327 0.000281781 0.000332238 0.000382822 0.000421057 0.000448618 0.000472902 0.000489929 0.000487661 0.000490209 0.000485769 0.000446547 0.000373526 0.000305203 0.000260447 0.000249914 0.000252715 0.000246927 0.000223462 0.000186709 0.000148013 0.000116329 9.7142e-05 9.02682e-05 9.29486e-05 0.000105594 0.000127771 0.00015739 0.000188889 0.000215458 0.000234716 0.000252666 0.000274312 0.000299467 0.000315739 0.000308273 0.000295854 0.000312583 0.000338495 0.000359028 0.000383069 0.000405158 0.000422905 0.000426034 0.000410328 0.00039658 0.000394697 0.000388745 0.000378379 0.00036754 0.000357412 0.000345617 0.000316332 -8.05365e-05 -9.15102e-05 -8.26756e-05 -5.35034e-05 -4.02548e-05 -4.37204e-05 -7.27136e-05 -7.50409e-05 -5.18611e-05 -3.49247e-05 -4.47169e-05 -9.00723e-05 -0.000165754 -0.000220238 -0.000191466 -5.58501e-05 0.000107698 0.000237773 0.000310136 0.000308831 0.000244596 0.000187648 0.000169624 0.000185722 0.000223681 0.00027497 0.000334465 0.00039642 0.000446041 0.000472948 0.000480669 0.000477689 0.000468915 0.000471639 0.000467548 0.000428241 0.00036323 0.000313907 0.000296317 0.000301859 0.000307161 0.0002945 0.000262505 0.000217782 0.000179862 0.00015377 0.000139029 0.000132715 0.000133263 0.000141901 0.000159052 0.000183924 0.00021233 0.000238656 0.000260714 0.000283484 0.000312351 0.000345894 0.000360698 0.000344216 0.000328054 0.000338699 0.000354357 0.000373273 0.000397102 0.000417442 0.000429823 0.000416702 0.00039074 0.00038011 0.000383528 0.000386479 0.000381637 0.00037485 0.000369006 0.000357873 0.000325765 -6.53092e-05 -4.83282e-05 -7.25852e-06 4.12609e-05 6.81465e-05 7.42373e-05 6.02156e-05 5.24305e-05 6.05583e-05 6.16598e-05 4.9513e-05 1.93537e-05 -3.33681e-05 -7.85486e-05 -5.66733e-05 4.05786e-05 0.00015187 0.00024086 0.00029977 0.000309207 0.000262525 0.000204836 0.000177284 0.000189681 0.000229406 0.000286979 0.000356146 0.000426252 0.000476962 0.000494012 0.000485699 0.000468131 0.000452891 0.000450968 0.00044153 0.000402419 0.000349834 0.000311063 0.000303421 0.000320043 0.000332862 0.000322166 0.00029065 0.000247369 0.000213344 0.000195798 0.000186767 0.000181048 0.000176615 0.000177139 0.000186009 0.000202415 0.000223042 0.000245322 0.0002689 0.00029717 0.000328411 0.000356788 0.00036388 0.000350549 0.000344685 0.000357793 0.000372117 0.000388489 0.000410882 0.000429835 0.000435855 0.000415074 0.000384515 0.000369512 0.000376148 0.000390786 0.000396888 0.000397463 0.000395045 0.000381687 0.000342795 -6.73774e-05 -3.11521e-05 3.24048e-05 8.83545e-05 0.000124626 0.000144594 0.000144321 0.000141787 0.00015142 0.00015989 0.00015697 0.000145247 0.00012319 0.000102985 0.000103583 0.000145333 0.000196964 0.000241643 0.000270616 0.000267508 0.000245147 0.000205503 0.000176259 0.00019527 0.000239913 0.000306907 0.000388775 0.00046266 0.000503915 0.000502726 0.000480923 0.000457648 0.000444418 0.00043638 0.00041059 0.000360947 0.000317547 0.000293152 0.000283074 0.000295431 0.000312931 0.000310825 0.000293577 0.000270284 0.000243685 0.000237256 0.000235983 0.000232568 0.000222319 0.000213527 0.000213641 0.000220945 0.000232568 0.000248734 0.000271169 0.000300764 0.000333381 0.000358221 0.000363929 0.000358591 0.000365572 0.000391381 0.000401828 0.000407891 0.000424462 0.000437111 0.000440361 0.000423585 0.000397018 0.000373858 0.000379257 0.000397931 0.000416043 0.000426102 0.000426721 0.000405208 0.000356021 -9.50658e-05 -5.64669e-05 1.52848e-05 8.926