# vtk DataFile Version 2.0
3D Data
ASCII
DATASET UNSTRUCTURED_GRID
POINTS 4466 double 
-322951 1.56583e+06 -2547.97
-313165 1.56583e+06 -2602.17
-303379 1.56583e+06 -2637.32
-293592 1.56583e+06 -2686.47
-283806 1.56583e+06 -2764.9
-274019 1.56583e+06 -2838.41
-264233 1.56583e+06 -2850.64
-254447 1.56583e+06 -2871.57
-244660 1.56583e+06 -2881.6
-234874 1.56583e+06 -2891.49
-225087 1.56583e+06 -2949.29
-215301 1.56583e+06 -2972.05
-205515 1.56583e+06 -2984.69
-195728 1.56583e+06 -3015.27
-185942 1.56583e+06 -3019.06
-176155 1.56583e+06 -3026.33
-166369 1.56583e+06 -3060.46
-156583 1.56583e+06 -3072.83
-146796 1.56583e+06 -3086.91
-137010 1.56583e+06 -3086.35
-127223 1.56583e+06 -3110.01
-117437 1.56583e+06 -3119.61
-107650 1.56583e+06 -3128.71
-97864.1 1.56583e+06 -3150.03
-88077.7 1.56583e+06 -3164.17
-78291.3 1.56583e+06 -3178.78
-68504.9 1.56583e+06 -3189.48
-58718.5 1.56583e+06 -3199.6
-48932 1.56583e+06 -3223.8
-39145.6 1.56583e+06 -3244.39
-29359.2 1.56583e+06 -3275.1
-19572.8 1.56583e+06 -3296.58
-9786.41 1.56583e+06 -3309.08
0 1.56583e+06 -3320.83
9786.41 1.56583e+06 -3331.36
19572.8 1.56583e+06 -3354.22
29359.2 1.56583e+06 -3376.37
39145.6 1.56583e+06 -3393.03
48932 1.56583e+06 -3402.63
58718.5 1.56583e+06 -3419.11
68504.9 1.56583e+06 -3442.84
78291.3 1.56583e+06 -3456.65
88077.7 1.56583e+06 -3472.16
97864.1 1.56583e+06 -3489.27
107650 1.56583e+06 -3510.78
117437 1.56583e+06 -3536.9
127223 1.56583e+06 -3555.05
137010 1.56583e+06 -3567.02
146796 1.56583e+06 -3580.42
156583 1.56583e+06 -3592.57
166369 1.56583e+06 -3618.56
176155 1.56583e+06 -3637.12
185942 1.56583e+06 -3655.65
195728 1.56583e+06 -3666.73
205515 1.56583e+06 -3675.35
215301 1.56583e+06 -3690.13
225087 1.56583e+06 -3704.1
234874 1.56583e+06 -3722.66
244660 1.56583e+06 -3740.58
254447 1.56583e+06 -3760.52
264233 1.56583e+06 -3775.29
274019 1.56583e+06 -3783.85
283806 1.56583e+06 -3804.56
293592 1.56583e+06 -3814.83
303379 1.56583e+06 -3828.03
313165 1.56583e+06 -3842.02
322951 1.56583e+06 -3845.95
332738 1.56583e+06 -3864.74
342524 1.56583e+06 -3877.4
352311 1.56583e+06 -3883.57
362097 1.56583e+06 -3893.29
371884 1.56583e+06 -3907.73
381670 1.56583e+06 -3912.61
391456 1.56583e+06 -3924.46
401243 1.56583e+06 -3940.49
411029 1.56583e+06 -3948.83
420816 1.56583e+06 -3952.82
-322951 1.57561e+06 -2561.92
-313165 1.57561e+06 -2623.46
-303379 1.57561e+06 -2652.71
-293592 1.57561e+06 -2707.28
-283806 1.57561e+06 -2807.85
-274019 1.57561e+06 -2864.78
-264233 1.57561e+06 -2884.22
-254447 1.57561e+06 -2871
-244660 1.57561e+06 -2887.87
-234874 1.57561e+06 -2936.19
-225087 1.57561e+06 -2979.01
-215301 1.57561e+06 -2990.74
-205515 1.57561e+06 -2985.5
-195728 1.57561e+06 -3035.11
-185942 1.57561e+06 -3028.19
-176155 1.57561e+06 -3044.84
-166369 1.57561e+06 -3071.47
-156583 1.57561e+06 -3083
-146796 1.57561e+06 -3095.08
-137010 1.57561e+06 -3108.42
-127223 1.57561e+06 -3123.45
-117437 1.57561e+06 -3145.19
-107650 1.57561e+06 -3156.15
-97864.1 1.57561e+06 -3167.34
-88077.7 1.57561e+06 -3173.84
-78291.3 1.57561e+06 -3187.35
-68504.9 1.57561e+06 -3199.21
-58718.5 1.57561e+06 -3216.35
-48932 1.57561e+06 -3227.27
-39145.6 1.57561e+06 -3245.77
-29359.2 1.57561e+06 -3279.92
-19572.8 1.57561e+06 -3303.04
-9786.41 1.57561e+06 -3322.04
0 1.57561e+06 -3332.39
9786.41 1.57561e+06 -3350.18
19572.8 1.57561e+06 -3366.15
29359.2 1.57561e+06 -3383.69
39145.6 1.57561e+06 -3397.38
48932 1.57561e+06 -3410.52
58718.5 1.57561e+06 -3426.44
68504.9 1.57561e+06 -3452.51
78291.3 1.57561e+06 -3469.63
88077.7 1.57561e+06 -3484.77
97864.1 1.57561e+06 -3497.25
107650 1.57561e+06 -3519.47
117437 1.57561e+06 -3538.87
127223 1.57561e+06 -3544.31
137010 1.57561e+06 -3576.64
146796 1.57561e+06 -3589.92
156583 1.57561e+06 -3605.78
166369 1.57561e+06 -3616.51
176155 1.57561e+06 -3634.62
185942 1.57561e+06 -3658.46
195728 1.57561e+06 -3666.79
205515 1.57561e+06 -3686.74
215301 1.57561e+06 -3701.3
225087 1.57561e+06 -3711.87
234874 1.57561e+06 -3731.49
244660 1.57561e+06 -3746.19
254447 1.57561e+06 -3759.45
264233 1.57561e+06 -3777.85
274019 1.57561e+06 -3787.65
283806 1.57561e+06 -3805.73
293592 1.57561e+06 -3822.95
303379 1.57561e+06 -3827.76
313165 1.57561e+06 -3844.33
322951 1.57561e+06 -3852.51
332738 1.57561e+06 -3868.06
342524 1.57561e+06 -3887.05
352311 1.57561e+06 -3888.88
362097 1.57561e+06 -3897.29
371884 1.57561e+06 -3909.61
381670 1.57561e+06 -3917.67
391456 1.57561e+06 -3927.28
401243 1.57561e+06 -3938.24
411029 1.57561e+06 -3953
420816 1.57561e+06 -3954
-322951 1.5854e+06 -2672.8
-313165 1.5854e+06 -2658.26
-303379 1.5854e+06 -2703.45
-293592 1.5854e+06 -2764.83
-283806 1.5854e+06 -2847.27
-274019 1.5854e+06 -2896.77
-264233 1.5854e+06 -2894.56
-254447 1.5854e+06 -2883.57
-244660 1.5854e+06 -2920.03
-234874 1.5854e+06 -2969.8
-225087 1.5854e+06 -3004.97
-215301 1.5854e+06 -3010.1
-205515 1.5854e+06 -3019.94
-195728 1.5854e+06 -3058.61
-185942 1.5854e+06 -3063.28
-176155 1.5854e+06 -3068.69
-166369 1.5854e+06 -3094.81
-156583 1.5854e+06 -3104.45
-146796 1.5854e+06 -3126.8
-137010 1.5854e+06 -3140.17
-127223 1.5854e+06 -3146.78
-117437 1.5854e+06 -3153.07
-107650 1.5854e+06 -3170.16
-97864.1 1.5854e+06 -3177.55
-88077.7 1.5854e+06 -3192.64
-78291.3 1.5854e+06 -3201.84
-68504.9 1.5854e+06 -3216.69
-58718.5 1.5854e+06 -3226.56
-48932 1.5854e+06 -3236.07
-39145.6 1.5854e+06 -3260.59
-29359.2 1.5854e+06 -3281.96
-19572.8 1.5854e+06 -3312.65
-9786.41 1.5854e+06 -3333.22
0 1.5854e+06 -3333.8
9786.41 1.5854e+06 -3361.18
19572.8 1.5854e+06 -3369.12
29359.2 1.5854e+06 -3392.27
39145.6 1.5854e+06 -3407.94
48932 1.5854e+06 -3422.26
58718.5 1.5854e+06 -3432.55
68504.9 1.5854e+06 -3456.01
78291.3 1.5854e+06 -3478.29
88077.7 1.5854e+06 -3488.16
97864.1 1.5854e+06 -3498.38
107650 1.5854e+06 -3519.3
117437 1.5854e+06 -3531.44
127223 1.5854e+06 -3552.83
137010 1.5854e+06 -3584.6
146796 1.5854e+06 -3597.39
156583 1.5854e+06 -3614.98
166369 1.5854e+06 -3617.53
176155 1.5854e+06 -3643.47
185942 1.5854e+06 -3667.94
195728 1.5854e+06 -3672.91
205515 1.5854e+06 -3691.91
215301 1.5854e+06 -3696.3
225087 1.5854e+06 -3715.17
234874 1.5854e+06 -3729.75
244660 1.5854e+06 -3752.85
254447 1.5854e+06 -3761.84
264233 1.5854e+06 -3778.61
274019 1.5854e+06 -3803.03
283806 1.5854e+06 -3811.61
293592 1.5854e+06 -3827.59
303379 1.5854e+06 -3835.63
313165 1.5854e+06 -3846.17
322951 1.5854e+06 -3857.92
332738 1.5854e+06 -3872.74
342524 1.5854e+06 -3883.65
352311 1.5854e+06 -3895.71
362097 1.5854e+06 -3899.5
371884 1.5854e+06 -3911.88
381670 1.5854e+06 -3922.07
391456 1.5854e+06 -3929.46
401243 1.5854e+06 -3945
411029 1.5854e+06 -3951.02
420816 1.5854e+06 -3954.82
-322951 1.59518e+06 -2694.59
-313165 1.59518e+06 -2714.27
-303379 1.59518e+06 -2792.17
-293592 1.59518e+06 -2835.82
-283806 1.59518e+06 -2923.23
-274019 1.59518e+06 -2932.61
-264233 1.59518e+06 -2909.92
-254447 1.59518e+06 -2927.93
-244660 1.59518e+06 -2956.78
-234874 1.59518e+06 -3019.4
-225087 1.59518e+06 -3024.82
-215301 1.59518e+06 -3047.25
-205515 1.59518e+06 -3055.19
-195728 1.59518e+06 -3083.64
-185942 1.59518e+06 -3070.55
-176155 1.59518e+06 -3106.03
-166369 1.59518e+06 -3109.85
-156583 1.59518e+06 -3109.95
-146796 1.59518e+06 -3124.37
-137010 1.59518e+06 -3146.97
-127223 1.59518e+06 -3161.03
-117437 1.59518e+06 -3177.05
-107650 1.59518e+06 -3189.07
-97864.1 1.59518e+06 -3197.66
-88077.7 1.59518e+06 -3205.25
-78291.3 1.59518e+06 -3216.13
-68504.9 1.59518e+06 -3224.37
-58718.5 1.59518e+06 -3232.78
-48932 1.59518e+06 -3238.59
-39145.6 1.59518e+06 -3270.44
-29359.2 1.59518e+06 -3295.47
-19572.8 1.59518e+06 -3324.47
-9786.41 1.59518e+06 -3339.17
0 1.59518e+06 -3349
9786.41 1.59518e+06 -3365.76
19572.8 1.59518e+06 -3380.15
29359.2 1.59518e+06 -3395.38
39145.6 1.59518e+06 -3412.63
48932 1.59518e+06 -3426.69
58718.5 1.59518e+06 -3440.72
68504.9 1.59518e+06 -3460.02
78291.3 1.59518e+06 -3483.24
88077.7 1.59518e+06 -3491.26
97864.1 1.59518e+06 -3502.02
107650 1.59518e+06 -3524.3
117437 1.59518e+06 -3540.81
127223 1.59518e+06 -3559.44
137010 1.59518e+06 -3585.4
146796 1.59518e+06 -3609.98
156583 1.59518e+06 -3622.58
166369 1.59518e+06 -3625.67
176155 1.59518e+06 -3638.5
185942 1.59518e+06 -3665.76
195728 1.59518e+06 -3682.55
205515 1.59518e+06 -3699.51
215301 1.59518e+06 -3705.36
225087 1.59518e+06 -3715.29
234874 1.59518e+06 -3735.81
244660 1.59518e+06 -3756.98
254447 1.59518e+06 -3769.55
264233 1.59518e+06 -3781.65
274019 1.59518e+06 -3800.02
283806 1.59518e+06 -3818.59
293592 1.59518e+06 -3824.48
303379 1.59518e+06 -3839.18
313165 1.59518e+06 -3851.17
322951 1.59518e+06 -3862.14
332738 1.59518e+06 -3871.32
342524 1.59518e+06 -3884.52
352311 1.59518e+06 -3896.56
362097 1.59518e+06 -3904.26
371884 1.59518e+06 -3914.07
381670 1.59518e+06 -3924.22
391456 1.59518e+06 -3934.64
401243 1.59518e+06 -3942
411029 1.59518e+06 -3944.82
420816 1.59518e+06 -3952.82
-322951 1.60497e+06 -2621.23
-313165 1.60497e+06 -2755.22
-303379 1.60497e+06 -2897.66
-293592 1.60497e+06 -2968.33
-283806 1.60497e+06 -2976.52
-274019 1.60497e+06 -2950.94
-264233 1.60497e+06 -2948.88
-254447 1.60497e+06 -2966.42
-244660 1.60497e+06 -3010.7
-234874 1.60497e+06 -3060.52
-225087 1.60497e+06 -3071.94
-215301 1.60497e+06 -3070.61
-205515 1.60497e+06 -3081.38
-195728 1.60497e+06 -3104.73
-185942 1.60497e+06 -3098.88
-176155 1.60497e+06 -3115.47
-166369 1.60497e+06 -3131.31
-156583 1.60497e+06 -3143.32
-146796 1.60497e+06 -3153.51
-137010 1.60497e+06 -3173.86
-127223 1.60497e+06 -3183.91
-117437 1.60497e+06 -3185.07
-107650 1.60497e+06 -3191.34
-97864.1 1.60497e+06 -3200.13
-88077.7 1.60497e+06 -3205.89
-78291.3 1.60497e+06 -3220.71
-68504.9 1.60497e+06 -3234.44
-58718.5 1.60497e+06 -3247.22
-48932 1.60497e+06 -3268.08
-39145.6 1.60497e+06 -3292.48
-29359.2 1.60497e+06 -3313.6
-19572.8 1.60497e+06 -3335.24
-9786.41 1.60497e+06 -3343
0 1.60497e+06 -3357.97
9786.41 1.60497e+06 -3376.54
19572.8 1.60497e+06 -3389.57
29359.2 1.60497e+06 -3402.34
39145.6 1.60497e+06 -3417.15
48932 1.60497e+06 -3428.97
58718.5 1.60497e+06 -3449.44
68504.9 1.60497e+06 -3463.51
78291.3 1.60497e+06 -3484.57
[...]
POINT_DATA 4466
SCALARS T double
LOOKUP_TABLE default
-28.2581 16.1833 23.3757 18.2153 -1.64832 -13.9295 -25.4833 -24.7986 0.073176 9.69378 8.70824 -26.2972 -47.8764 -39.8861 0.228158 37.5676 45.5129 43.1067 24.7443 -15.2773 -14.9228 -25.3127 -34.5469 -27.9791 -8.1287 -0.587492 -95.5087 -94.4896 -76.716 -66.8667 -53.6557 -39.3177 -38.262 -40.2003 -32.1788 -33.707 -6.74684 16.0641 3.28659 -4.17007 8.81337 10.3868 -4.85678 2.94925 36.4684 56.0572 101.792 99.2559 99.5431 114.062 68.8651 73.3376 82.8978 39.6624 1.74087 -22.8596 -7.34603 1.10722 1.84719 -2.69602 8.28918 9.31807 9.46242 11.9214 18.0662 25.6206 26.9604 8.3976 2.61237 44.3091 0.416562 12.8013 5.22297 67.5696 173.542 6.11046 32.0006 -34.9567 4.0481 17.6877 16.8397 -3.99514 -28.4616 -23.3297 -11.1114 8.11625 2.85425 -8.43265 -41.0682 -66.3569 -57.6853 -22.2489 -1.9271 2.51235 25.2258 2.98759 -11.6373 -26.6504 -30.8769 -55.5805 -53.0693 -28.9019 -8.63116 0.328978 -87.7217 -108.475 -84.2102 -73.5614 -53.5103 -45.1379 -40.0436 -42.4683 -45.0415 -34.2839 -25.4841 -27.8508 -19.8471 -6.19733 1.22961 -11.7975 -10.9666 -13.0023 10.0142 62.0181 101.676 126.161 124.884 106.874 114.841 109.791 60.2709 30.4348 -16.2732 -17.6262 -4.9948 0.0688941 -0.303331 5.89748 8.33266 2.66935 12.4907 33.0113 40.4326 30.3839 6.87751 -10.388 39.808 70.4522 16.7856 -1.00922 59.192 56.3326 12.78 51.8319 -21.9803 2.10045 13.0179 0.773242 6.66224 -11.539 -14.701 -19.5041 -28.7316 -36.4535 -42.1461 -63.725 -69.7712 -55.0195 -41.9813 -37.8969 -36.9103 -2.89721 5.68673 -9.08425 -22.8047 -27.6796 -51.8516 -51.9081 -16.9914 -24.0285 10.1042 -8.82757 -116.476 -99.9768 -84.6991 -66.6099 -62.9789 -47.501 -51.3122 -49.9619 -45.7185 -43.4818 -43.0361 -34.2299 -22.3074 -19.8095 -3.49148 12.0647 6.74919 19.5461 33.389 53.2661 75.2757 80.9024 91.2277 102.638 82.2557 57.5394 38.3012 -0.512162 -20.8807 -13.1091 -10.8849 -1.49866 4.55391 10.6055 10.8897 28.097 48.2173 39.8472 28.6345 10.2955 -6.85822 68.1429 94.0855 0.795336 -13.2608 22.6412 19.6994 8.83228 20.3122 -49.7502 -7.74339 22.7342 -5.07836 3.05413 -22.6169 -32.4037 -39.478 -53.1534 -66.7935 -79.8966 -82.1902 -72.6374 -56.8619 -51.5019 -49.3035 -54.7695 -37.4326 -23.9699 -29.5078 -31.9027 -26.3007 -46.0287 -47.9682 29.114 31.1534 -39.5689 -6.51391 -21.8439 -105.53 -97.9271 -86.1939 -73.5208 -62.5989 -56.2514 -44.4971 -46.7774 -43.0812 -45.0852 -38.7887 -37.7304 -31.6554 -8.95886 -6.84571 4.10966 16.366 16.0221 17.0418 32.3897 37.7394 43.6969 53.0197 53.651 40.3449 22.2547 0.773121 3.76179 0.685844 -14.1685 -8.23107 -5.91278 -0.0962995 22.2199 49.8024 54.5076 31.026 11.5765 -2.62748 9.09704 10.5233 -2.10151 -17.0711 -9.438 45.6052 47.8 5.79685 0.148643 -70.8066 -46.791 -24.1324 -12.2896 -27.8206 -42.2961 -64.741 -62.6837 -80.4198 -96.8284 -108.078 -96.4173 -83.3075 -68.2649 -56.934 -65.0074 -70.7621 -54.1843 -46.2971 -52.4727 -45.8393 -27.4565 -39.4381 -52.4406 -24.6137 -22.9177 -45.5233 -34.9524 -29.3648 -79.034 -103.107 -93.1782 -80.3238 -77.7751 -72.2688 -60.171 -54.87 -46.8019 -46.0853 -39.9351 -33.868 -14.4811 -6.36069 -17.8624 -9.46972 2.88301 -2.81608 -10.4227 14.0452 28.3735 26.46 19.3397 34.8098 8.23333 -1.24219 3.10102 0.398897 -8.89937 -18.9448 -13.6003 -15.7832 -14.8149 1.42107 8.94307 33.776 18.6635 -1.25354 -16.3228 17.3301 13.1562 -16.7416 -24.3562 -16.9409 32.4236 25.2494 -15.6299 -12.6223 -125.25 -97.3254 -62.8327 -46.908 -49.2823 -53.0733 -72.346 -93.7283 -101.328 -124.278 -132.929 -109.121 -101.242 -75.938 -51.7849 -62.7966 -75.8607 -68.1008 -63.247 -51.3831 -34.5072 -11.9251 -23.8468 -43.0783 -32.6662 -44.9147 -23.3352 -3.09734 -19.1535 -42.315 -109.804 -98.1467 -81.59 -80.8713 -87.9034 -76.2198 -64.1251 -53.1071 -49.3593 -33.0907 -28.9517 -23.4905 -32.7312 -28.4018 -11.483 -10.0275 -12.9189 -7.48057 11.6439 19.2733 8.97399 -3.19597 1.08292 -13.5708 -20.5105 -7.42487 -16.6096 -17.2245 -22.4839 -20.0233 -16.228 -13.0672 -10.5458 -4.78806 14.3151 27.7811 30.5829 92.0348 84.6233 13.9884 -20.0191 -20.2426 -4.71003 72.0025 11.8721 -27.7688 -21.6843 -124.091 -134.85 -107.838 -70.2265 -95.1477 -64.756 -68.2511 -111.909 -113.526 -113.557 -71.399 -22.6715 16.3715 15.4249 -0.606677 -29.7431 -42.9042 -49.5186 -48.9426 -25.7556 -3.66232 13.5236 -6.84225 -28.3313 -21.8707 -12.2927 25.203 9.94829 7.17572 3.4834 -47.6072 -94.4464 -92.5602 -83.6377 -78.0473 -75.6492 -64.8293 -48.4374 -51.8522 -37.8302 -31.3131 -13.1768 -25.0107 -25.3273 -16.3695 -11.407 -16.1854 7.35499 10.5211 6.70699 -1.3157 -8.4358 -7.8527 -8.44265 -10.573 -21.3096 -32.7356 -25.7252 -25.8934 -20.713 -15.1726 -14.1637 -7.88019 -0.618137 1.9967 30.1786 28.2421 44.4644 29.8985 -0.884462 -21.0823 -15.8715 9.31834 13.0091 -6.18211 -20.4061 -26.5631 -160.174 -135.712 -101.114 -124.051 -114.547 -106.305 -94.0383 -93.7694 -73.4654 -30.8499 30.7728 56.391 106.435 131.643 100.864 63.1533 36.3063 -11.9033 -2.8083 17.8273 37.4262 40.6732 4.47636 -27.2744 -42.5751 -39.2091 -15.9091 -3.89748 13.2063 5.97722 7.58517 -30.0524 -66.2154 -66.1105 -66.3342 -69.3933 -57.4762 -32.5091 -46.6861 -34.0371 -21.0557 -17.9912 -5.82948 -22.5783 -20.8714 -15.5673 -24.5764 -18.5822 -4.66815 -5.47337 -7.81116 -4.11261 -0.491228 -6.6932 -6.84961 -14.5607 -23.3811 -19.8853 -30.5449 -12.646 -27.6898 -23.0275 -13.2444 -6.03982 -5.29893 6.1831 14.8095 12.8601 7.2569 0.9921 -14.0197 -7.64494 7.49468 2.03677 -7.56051 -11.3048 -18.1151 -183.582 -137.243 -98.6726 -102.581 -107.1 -115.389 -89.0315 -62.6768 -13.7269 42.7066 68.5678 126.695 202.073 203.332 168.736 144.322 85.1433 22.7158 36.8853 53.8285 62.337 63.3312 10.0974 -27.8347 -47.2622 -59.0253 -53.6073 -45.5887 -33.5169 -18.7353 -5.34553 11.8167 -42.2314 -39.1504 -50.8042 -60.891 -49.2535 -29.1631 -33.4171 -35.9224 -14.4708 -23.9564 -11.7309 -22.5184 -26.8025 -25.5225 -17.0106 -22.7275 -18.6385 -18.6682 -19.1504 -15.9682 -12.8342 -29.4437 -25.3118 -22.8558 -32.1664 -19.8786 -27.2652 -33.0245 -48.4328 -35.1626 -24.7322 -21.0101 -7.94089 1.39909 9.83163 5.18445 2.79351 -3.32335 -10.9184 -8.35158 -0.538303 3.50905 -7.91966 -0.723164 -6.51834 -184.115 -154.38 -128.783 -120.292 -106.354 -97.4962 -48.1356 -56.6493 -15.5914 21.3724 56.4793 100.612 159.437 96.1206 87.6998 108.407 60.9314 39.0543 62.811 72.7261 100.567 99.8193 39.2449 -13.0262 -31.9413 6.91744 108.117 -30.6814 -39.5697 -17.2015 -0.631583 3.23203 -25.6451 -45.9154 -49.8953 -61.6242 -62.3798 -51.5003 -42.5596 -34.8838 -13.0914 -12.7209 5.84723 -20.3188 -34.1743 -50.0288 -41.3499 -27.7447 -16.2442 -24.6883 -28.9075 -33.3845 -36.7611 -54.8886 -44.7108 -19.5146 -8.26232 2.60401 -36.3109 -48.1964 -32.7054 -1.94984 -31.0001 -31.4946 -17.8266 -19.7778 -18.2398 4.3876 -1.20917 -28.2462 -21.4739 -6.24172 6.79924 13.8467 6.29306 -3.40644 -11.392 -108.359 -158.093 -126.921 -118.993 -101.604 -107.322 -62.0413 -64.4242 -48.3604 -24.438 4.15124 5.29844 55.6559 -45.2648 -4.79797 44.5953 58.7131 29.5908 40.9074 71.1513 125.066 144.613 65.2563 19.1595 19.7908 34.5869 26.3214 -32.8043 -26.6925 -9.67406 8.75569 29.8914 -0.234125 -32.4743 -55.3531 -51.7182 -48.0068 -46.343 -34.0872 -31.5016 -20.7551 -5.05149 -4.26713 -31.4261 -31.302 -50.8723 -36.7881 -16.2464 -14.2368 -33.7716 -47.1563 -61.033 -76.9685 -45.1784 -32.7511 23.4188 4.68915 -18.456 6.00755 -6.76342 -29.8006 -5.89478 -15.6374 -38.0306 -41.9366 -44.4137 -26.5764 8.11421 6.06921 -21.586 -7.88515 13.5816 19.0984 17.9336 17.646 -14.4736 -23.408 -69.4844 -48.3175 -55.7305 -90.6889 -99.0925 -98.2948 -75.8932 -76.7443 -62.9914 -63.1804 -11.0504 -53.5834 -34.1707 -8.50448 8.25708 -33.0997 -8.16127 -11.5829 0.885898 20.382 114.602 173.717 121.976 79.896 74.7037 124.388 139.671 -15.793 -35.9619 -31.4184 31.0495 110.161 52.3107 17.6825 -25.8659 -32.2821 -4.54107 -27.0544 -38.4909 -40.5475 -26.531 -16.6641 -25.9298 -34.5797 -35.1856 -27.6331 -30.084 -21.7459 -26.283 -38.1663 -44.1208 -44.079 -65.5869 -47.6523 -25.1553 63.9171 6.15339 3.35937 126.407 28.7119 -22.1261 -21.4148 -25.7726 -32.317 -62.5231 -54.1508 -19.8848 13.4606 -9.16979 -8.97217 23.5381 36.5861 3.55115 -11.0201 -15.9932 -29.0281 -22.0339 -45.7058 -57.1818 -53.7671 -84.6117 7.06695 -50.1279 -58.9134 -46.4654 -68.1788 -65.7602 -69.8297 -36.5158 -77.2971 16.769 -71.0918 -38.1412 -50.5985 -49.1246 -34.3003 -12.8728 68.7654 124.282 97.7725 89.8987 86.6567 7.13311 14.7671 -22.5766 -42.5012 -45.0492 6.0579 61.2872 47.0524 55.257 46.3368 -37.0203 -16.3922 -13.4022 -46.7419 -38.2639 -26.0534 -29.2232 -38.1906 -47.3346 -47.7156 -16.0911 -32.5127 -52.9971 -47.4828 -36.3934 -17.2116 -9.17376 -42.9826 -37.5929 -19.4027 44.9212 66.0568 26.1225 147.269 7.92042 4.9699 17.6441 30.4829 -34.9336 -56.0868 -6.43052 5.50956 32.9285 17.4761 3.09789 6.77676 13.9303 -6.79743 -23.6792 -26.8827 -19.8125 -1.479 -3.32919 -13.5922 -4.96297 -43.1886 -95.6779 -55.5743 -42.1351 -54.4503 -75.0419 -44.7541 -50.4288 -20.1395 -57.0178 -84.1877 -48.81 -58.8367 -73.6416 -81.3549 -69.253 -53.2142 -13.8892 55.9437 65.0619 78.0678 74.703 -24.3287 -37.1624 -40.4187 -49.5497 -25.5475 14.1038 22.5969 23.7872 32.3686 55.7734 14.7676 -20.0514 8.28118 10.0068 -15.6441 -30.9099 -24.3549 -17.6976 -24.5024 -35.839 3.50268 23.6434 -35.7066 -38.7932 -21.9673 52.8523 61.4274 -17.5489 -25.6106 -15.0605 -17.3131 -4.43728 -12.1171 -11.4952 18.0908 45.8329 34.2509 14.5038 -2.74783 -0.189724 18.0271 17.4139 75.8042 52.5748 30.6308 8.59621 21.4985 7.74003 -13.1142 -9.94356 6.20363 19.6562 74.5251 46.0076 10.9954 -22.443 -9.44761 49.7026 -6.97794 -37.8028 -39.0562 -28.4332 -25.9286 -44.3472 -74.0877 -136.996 -117.544 -139.58 -100.532 -88.9235 -83.2114 -74.1351 -55.9801 10.7401 26.7045 32.168 37.9376 -2.67026 -29.0275 -30.1739 -33.7697 -24.3943 0.517335 34.617 4.30016 32.9612 24.0554 44.0252 58.3173 22.1776 62.8107 41.7339 -8.65197 -28.3436 -37.3617 -49.5065 -31.7318 -12.0757 3.35672 -3.14334 -27.9375 -20.7335 21.1955 21.2177 -7.15562 -8.83242 -12.5552 -26.1876 -25.9539 -31.5486 -20.4768 -5.50911 1.46704 24.2255 59.1323 36.8399 9.87626 13.3614 19.0239 84.4136 81.3459 42.7275 3.22207 26.9445 35.1453 26.1198 26.2923 25.3341 34.9862 39.434 64.103 -15.359 -0.795877 40.8481 40.6776 44.2888 33.0551 9.02853 -27.377 -39.8233 -45.1866 -62.0731 -99.252 -174.814 -187.1 -134.42 -104.409 -88.3427 -67.5845 -41.5237 24.7646 8.80854 13.0295 34.1974 49.861 22.537 34.9973 40.6556 -6.34019 -6.71404 6.54791 -1.9991 44.8528 8.58841 22.4222 54.8737 125.987 284.588 118.593 48.7724 19.5776 3.34988 -1.03139 -2.9926 -9.29807 33.0902 41.0513 1.89337 -14.5523 -7.134 -17.5296 15.8548 6.44144 10.8829 7.76789 -1.26348 -14.4819 12.5494 26.1248 -41.0071 56.4118 56.98 11.5593 -13.8922 -4.17032 6.90582 80.9049 113.566 81.1639 24.4797 19.4929 120.703 97.644 58.4617 13.1044 13.8898 13.3559 19.6267 72.0779 17.8581 9.69851 69.628 67.2098 60.6043 41.3008 25.4084 -0.646636 -35.7268 -54.203 -71.4567 -99.5946 -143.83 -109.745 -117.43 -113.572 -82.374 -49.694 -25.9793 -61.4452 -9.00417 10.4787 39.4487 34.9627 42.1862 53.8891 36.8539 43.685 102.533 44.873 18.8226 26.7718 38.7157 46.2826 48.7566 118.287 53.3584 71.7585 42.3705 38.3504 23.5619 -8.63215 -19.586 61.528 26.7569 13.4318 14.6387 28.8157 19.6432 19.0616 10.5109 23.9866 43.7218 17.8213 7.18607 10.1487 74.092 21.4015 16.8189 -3.24525 -20.3685 -24.5757 -8.1252 -13.3826 60.3949 136.161 72.0076 52.7744 32.4862 40.7947 82.6241 64.1196 -15.1797 -32.5877 -22.1109 -42.8149 35.045 111.627 62.3828 62.7807 69.2988 69.4113 71.4405 94.9564 65.3519 39.0474 2.41934 -15.6105 -30.2863 -57.287 -50.9156 -103.663 -160.156 -225.677 -156.184 -78.817 -85.7558 -30.8253 -42.6555 -51.4919 -27.0994 -0.579137 23.873 52.0943 51.2737 98.6218 29.847 4.98485 50.9798 59.368 71.1748 69.1066 81.7211 84.2879 72.8105 39.6065 26.8162 9.14739 -16.845 -38.3391 3.40547 3.09271 11.2931 14.1016 10.0043 -5.75762 -7.17586 24.7246 24.4111 13.0772 8.46267 22.9512 105.799 141.632 96.3681 -4.12341 -60.3726 -34.2657 -41.85 4.73421 7.06185 71.0947 97.8378 51.4398 76.0881 39.0703 -11.1621 0.670609 -2.69549 -38.2233 -42.5462 29.045 29.4169 44.8736 165.079 13.5225 123.214 204.657 159.818 160.155 128.689 126.833 105.546 49.6587 34.6611 9.18776 5.10281 -7.43403 -64.3531 -181.274 -374.666 -264.041 -118.443 -69.7384 -33.8599 -65.1776 -72.9875 -58.4819 -42.7079 -46.6713 -45.3801 -23.7647 -7.08541 -28.7186 -38.6618 127.71 155.946 106.918 112.953 105.989 113.568 96.7088 89.0282 77.343 12.6016 -6.93126 -17.2361 7.27449 3.90152 -1.85987 19.7157 9.83344 14.2394 -1.86005 20.5379 19.8488 43.9696 37.2281 43.813 145.728 128.377 21.7055 -16.6972 11.2238 28.2332 -27.1086 -9.90133 53.4784 80.074 34.4033 22.3584 60.2647 19.481 -21.2834 -27.7728 -38.9685 -44.5378 -46.9195 264.316 202.551 127.196 268.692 176.665 273.003 508.505 235.474 232.658 203.97 187.003 181.388 156.724 77.219 22.275 32.55 22.1272 16.8741 -32.2726 -186.441 -224.145 -154.356 -93.1692 -64.8143 -9.11441 -55.147 -85.6503 -87.8753 -94.9006 -97.3288 -79.825 -67.8091 -41.2572 3.84889 147.123 289.279 219.308 114.135 57.5528 73.4063 98.0746 121.409 25.9507 40.7697 16.6689 -8.33248 -3.6751 -3.87014 -3.45404 23.8945 2.87573 6.18034 4.20394 3.68053 22.7578 56.1017 38.9418 17.7751 15.3937 8.27164 22.8303 74.735 96.3248 63.6678 10.743 -28.3088 29.7823 76.9062 56.8888 34.2949 28.3672 -9.06546 -26.8474 -31.2117 -41.2 -48.9365 -64.0562 233.671 136.755 150.701 303.207 108.659 150.117 259.826 238.474 260.567 272.922 235.225 237.861 237.989 260.808 132.588 83.1935 55.2688 55.2886 -7.3719 -16.0884 -121.944 -132.556 -154.004 -85.8133 -5.35434 -22.3832 -72.3796 -87.1321 -109.09 -115.308 -98.4812 -74.8897 -26.983 58.2978 143.694 84.9383 27.9399 109.008 63.6478 36.6458 88.2494 106.299 70.4585 134.862 46.5283 2.77546 -5.64036 27.7699 54.1098 25.1551 2.74178 5.44209 9.94625 15.9079 16.9254 18.529 18.6816 10.0059 -3.21047 -8.38691 0.460222 164.571 209.403 66.8272 -8.4982 5.25698 40.1025 86.6366 162.604 21.5495 7.47628 21.2801 -6.66542 -26.1309 -4.00392 1.70312 -0.0155569 122.785 77.5566 57.665 184.594 172.088 110.258 86.776 40.5331 42.6057 115.641 129.225 179.556 239.092 303.459 349.16 351.393 209.82 158.261 104.666 26.8082 -4.54752 -43.3589 -100.689 -57.3549 23.3351 -15.0086 -56.6713 -61.7163 -91.2911 -102.826 -66.88 -30.5565 10.3508 103.2 156.513 51.7396 -25.9754 9.36033 207.204 86.285 124.895 157.579 88.2761 64.9016 47.3178 34.4177 7.99158 20.1738 56.2651 33.6226 20.0131 6.98121 7.18111 12.9589 15.9572 10.6068 7.98268 19.4488 11.5043 4.73976 48.1488 147.506 103.071 21.0285 1.05986 12.0147 19.4276 78.241 105.177 -5.32477 -18.353 23.017 -19.1103 -43.7851 5.64227 11.903 42.5114 34.9588 16.9986 31.1161 99.4739 66.539 19.9308 -27.2095 -52.9398 -33.2546 100.755 43.8674 58.657 100.645 190.612 262.681 316.749 408.451 313.97 193.452 131.801 74.355 15.0455 9.52574 -3.63952 7.48018 -0.86548 12.2321 41.8327 -10.6269 -39.4801 3.40913 32.3471 66.9783 143.911 148.853 54.6148 -18.1594 -10.4655 91.4526 39.3325 61.9797 147.229 154.1 125.102 31.5554 43.7669 25.2573 -9.4135 -9.76414 20.1373 48.2858 15.853 -13.4056 1.19532 3.90498 3.56612 4.78031 20.6805 12.7268 29.8291 159.667 197.648 26.7679 11.1364 -18.681 -26.2882 48.6804 121.104 52.8837 -37.0067 21.6383 111.538 27.5623 5.83823 0.295984 -20.0556 1.6149 6.94782 3.5281 -19.9619 -17.5002 -54.0976 -72.1049 -52.4073 -34.3099 18.1209 62.9824 17.0713 0.77808 21.9355 73.3529 113.578 126.864 186.429 243.308 238.174 199.639 159.395 110.105 38.0571 -10.3878 -13.0099 -41.7756 5.72295 15.256 19.0323 55.6722 92.8047 92.1992 129.083 175.502 141.691 45.6763 -0.488795 -12.4861 -3.17911 -24.2542 -6.7561 54.0845 91.3874 157.025 179.899 67.2932 10.9438 0.806904 0.190307 34.1924 103.126 87.8541 28.8024 22.0054 -2.8009 6.29279 32.098 36.7576 55.9162 49.0959 105.812 158.214 41.3212 9.40335 3.5412 33.6137 68.4049 67.0558 0.42084 -46.4227 53.3911 93.4006 73.132 41.518 70.1528 121.743 92.6626 5.6966 24.5101 -40.1034 -75.8029 -102.288 -101.577 -72.4058 -44.8757 -28.8549 -31.9545 -48.2311 -16.8576 -14.3209 60.5467 86.6485 81.1595 91.8498 103.602 158.179 163.949 161.948 137.209 89.6261 -7.68583 10.6579 34.5607 46.1248 1.10892 -20.0024 -25.4826 -102.256 -27.9481 20.3445 104.912 99.3415 30.1283 7.28731 6.41619 59.4132 -55.3029 -24.0826 28.0431 73.676 87.7334 126.757 93.1818 65.4244 46.4812 57.8203 49.0961 45.8906 4.3904 -10.1684 9.65027 -12.0274 1.42563 -4.83105 16.5302 58.8108 43.8501 104.563 170.536 2.38786 -16.9688 -2.54769 -5.91373 -18.7875 -16.2003 -25.1695 -23.995 23.0167 56.542 86.9084 112.889 98.0977 24.03 10.7695 -75.8544 -57.025 -91.7353 -109.559 -117.894 -101.691 -82.4471 -60.9245 -36.8595 -37.776 -14.5721 86.5017 131.776 51.9244 65.1951 80.4637 83.4344 65.8785 94.2716 123.602 138.816 131.183 71.6503 20.3443 19.66 4.86022 22.0065 16.8785 -86.0603 116.249 561.471 205.531 -117.292 -30.8699 -45.4879 -62.5738 -40.063 -41.2133 -48.1631 -85.966 -61.5053 -33.6715 8.6051 37.0229 40.2024 84.0977 76.8691 72.9696 51.4263 106.887 107.675 26.8401 -8.84254 -8.73478 -25.1379 -21.0978 -12.0778 -4.82904 32.9207 33.7456 55.0856 24.0305 -47.3491 -47.8984 -10.5569 6.24393 -50.5231 -39.2573 -39.8873 -40.5986 -3.96552 42.9767 43.5262 81.6013 70.5507 -3.76745 -18.6806 -21.7089 -57.7843 -136.034 -140.486 -130.852 -100.1 -83.3421 -80.7299 -73.6663 -76.2567 10.2526 -42.9643 97.0424 39.5934 19.8071 56.1855 71.6836 61.9064 38.0102 75.8177 105.341 113.881 57.9593 31.5752 9.21716 47.6674 55.6266 35.3061 1.21394 350.429 927.359 502.657 -52.7117 -105.264 -118.831 -109.28 -87.5577 -67.4533 -63.2123 -66.902 -72.7497 -55.3135 -50.728 -42.4803 -36.8083 -9.96002 41.8433 51.0758 78.5765 167.384 144.296 56.5552 33.6433 12.3089 2.64604 -10.0119 -19.625 -4.25852 27.4364 42.6675 34.5866 12.2512 -9.35157 -17.6629 66.2694 35.346 -34.4742 -24.519 -18.6302 -39.2686 -45.1197 24.0152 21.7754 -1.59478 24.8395 25.9661 5.49943 136.986 -4.40787 -85.7504 -106.252 -109.199 -100.377 -75.7401 -71.3291 -77.6639 -81.4167 28.1548 -21.2748 5.67531 32.1505 -3.71505 21.9873 49.8592 55.1624 26.3252 12.5 61.074 131.385 60.1576 14.7699 6.32487 47.9686 71.7543 37.4826 41.0846 208.7 639.124 397.676 14.7255 -90.4532 -84.0051 -54.8829 -72.9012 -115.126 -110.434 -93.023 -98.7633 -68.3557 -47.6541 -16.4233 -29.8752 -30.7166 -14.5045 27.9406 0.203701 38.6906 99.9821 104.986 54.4324 64.005 34.7113 -4.23974 -34.0936 -9.97681 4.38533 26.2498 28.3955 6.04476 -15.4636 10.7764 49.4558 -30.6529 -40.5358 -19.2948 46.2284 29.5525 -30.701 9.74879 -8.88304 -23.9424 -11.9795 -2.10481 -2.28756 -11.0115 -54.4448 -71.7141 -59.4207 -51.1274 -59.432 -54.7245 -59.2278 -84.0785 -126.088 -143.458 -37.8755 -58.4278 5.01973 4.79171 -2.6178 12.934 27.7926 12.5183 -25.0708 -34.7718 47.6032 44.6398 -20.3108 -6.69373 -0.18538 24.0379 53.1309 51.9117 48.8404 231.869 213.866 62.03 -26.2519 -2.41303 49.0518 -26.0307 -116.229 -158.971 -140.848 -119.966 -90.7781 40.7643 15.4358 -57.6424 -68.5163 -50.7492 -26.8526 -30.4347 -39.7417 -11.1396 43.9626 79.5411 80.1274 16.3605 -31.0048 -1.85156 -5.74321 5.30507 12.4158 -18.8278 -32.1677 -38.2834 8.15843 22.021 1.89601 -24.8498 45.1012 58.9184 41.0386 -35.6317 -27.7555 -9.88986 -38.6313 -38.675 -27.1809 -13.6701 -61.3772 -80.7644 -79.3113 -58.7199 -40.7288 -43.0648 -30.6737 -50.1078 -82.8503 -146.498 -217.31 29.6865 -75.2804 -47.4833 -3.66934 -0.740238 -12.124 21.153 45.1309 9.97387 -37.9598 -43.6915 -1.54818 -27.7773 -57.6389 -47.7585 -13.6204 7.84701 -2.64058 23.0154 152.715 223.571 124.063 -5.41555 -6.33511 37.1685 36.4814 -43.563 -143.021 -154.921 -182.588 -111.566 -77.6014 -72.0988 -49.9394 -65.0792 -48.839 -7.16724 -44.2761 -31.8303 -19.4798 -2.79248 40.7038 128.674 55.2903 3.96528 1.95325 -12.8751 4.40951 -43.671 -59.9452 -3.05228 -34.2202 19.0385 27.5684 -1.95846 21.2002 13.0803 29.4003 57.6898 7.74766 26.5606 38.1905 -11.0555 -11.5138 -31.0791 -26.8495 -59.6236 -89.9776 -83.7268 -72.2694 -56.5768 -43.4588 -46.9802 -52.302 -78.3867 -123.978 -131.973 -90.1283 -76.6353 -66.7819 -39.2291 -38.2283 -32.8163 1.76773 63.0574 38.0709 5.12461 -48.2376 -57.0205 -18.1008 -54.4239 -55.102 -29.7485 -32.9208 23.0102 119.191 131.756 177.141 124.718 -23.0631 -29.5977 17.7606 149.825 1.06942 -38.5692 24.6005 -165.92 -125.307 -88.7911 -96.7849 -60.0046 -17.99 -61.0873 -36.3097 -44.8831 -60.2785 -33.9725 -2.12531 -5.36355 8.52202 30